
     Program PWSCF v.6.2 (svn rev. 13949:13950) starts on 24Apr2018 at 14:48: 1 

     This program is part of the open-source Quantum ESPRESSO suite
     for quantum simulation of materials; please cite
         "P. Giannozzi et al., J. Phys.:Condens. Matter 21 395502 (2009);
         "P. Giannozzi et al., J. Phys.:Condens. Matter 29 465901 (2017);
          URL http://www.quantum-espresso.org", 
     in publications or presentations arising from this work. More details at
     http://www.quantum-espresso.org/quote

     Parallel version (MPI), running on    16 processors

     MPI processes distributed on     1 nodes
     R & G space division:  proc/nbgrp/npool/nimage =      16
     Reading input from /home/Daria.Satco/QE_calc/cnt4x2/cnt42.scf.in

     Current dimensions of program PWSCF are:
     Max number of different atomic species (ntypx) = 10
     Max number of k-points (npk) =  40000
     Max angular momentum in pseudopotentials (lmaxx) =  3

     Subspace diagonalization in iterative solution of the eigenvalue problem:
     one sub-group per band group will be used
     scalapack distributed-memory algorithm (size of sub-group:  2*  2 procs)

 
     Parallelization info
     --------------------
     sticks:   dense  smooth     PW     G-vecs:    dense   smooth      PW
     Min         525     525    137                33403    33403    4428
     Max         526     526    139                33408    33408    4431
     Sum        8413    8413   2201               534491   534491   70881
 


     bravais-lattice index     =            6
     lattice parameter (alat)  =      23.0000  a.u.
     unit-cell volume          =   11188.2520 (a.u.)^3
     number of atoms/cell      =           56
     number of atomic types    =            1
     number of electrons       =       224.00
     number of Kohn-Sham states=          112
     kinetic-energy cutoff     =      50.0000  Ry
     charge density cutoff     =     200.0000  Ry
     convergence threshold     =      1.0E-07
     mixing beta               =       0.7000
     number of iterations used =            8  plain     mixing
     Exchange-correlation      =  SLA  PZ   NOGX NOGC ( 1  1  0  0 0 0)

     celldm(1)=  23.000000  celldm(2)=   0.000000  celldm(3)=   0.919557
     celldm(4)=   0.000000  celldm(5)=   0.000000  celldm(6)=   0.000000

     crystal axes: (cart. coord. in units of alat)
               a(1) = (   1.000000   0.000000   0.000000 )  
               a(2) = (   0.000000   1.000000   0.000000 )  
               a(3) = (   0.000000   0.000000   0.919557 )  

     reciprocal axes: (cart. coord. in units 2 pi/alat)
               b(1) = (  1.000000  0.000000  0.000000 )  
               b(2) = (  0.000000  1.000000  0.000000 )  
               b(3) = (  0.000000  0.000000  1.087480 )  


     PseudoPot. # 1 for C  read from file:
     ./C.pz-vbc.UPF
     MD5 check sum: ab53dd623bfeb79c5a7b057bc96eae20
     Pseudo is Norm-conserving, Zval =  4.0
     Generated by new atomic code, or converted to UPF format
     Using radial grid of  269 points,  1 beta functions with: 
                l(1) =   0

     atomic species   valence    mass     pseudopotential
        C              4.00     1.00000     C ( 1.00)

      2 Sym. Ops. (no inversion) found


                                    s                        frac. trans.

      isym =  1     identity                                     

 cryst.   s( 1) = (     1          0          0      )
                  (     0          1          0      )
                  (     0          0          1      )

 cart.    s( 1) = (  1.0000000  0.0000000  0.0000000 )
                  (  0.0000000  1.0000000  0.0000000 )
                  (  0.0000000  0.0000000  1.0000000 )


      isym =  2     180 deg rotation - cart. axis [0,0,1]        

 cryst.   s( 2) = (    -1          0          0      )
                  (     0         -1          0      )
                  (     0          0          1      )

 cart.    s( 2) = ( -1.0000000  0.0000000  0.0000000 )
                  (  0.0000000 -1.0000000  0.0000000 )
                  (  0.0000000  0.0000000  1.0000000 )


     point group C_2  (2)   
     there are  2 classes
     the character table:

       E     C2   
A      1.00  1.00
B      1.00 -1.00

     the symmetry operations in each class and the name of the first element:

     E        1
          identity                                               
     C2       2
          180 deg rotation - cart. axis [0,0,1]                  

   Cartesian axes

     site n.     atom                  positions (alat units)
         1           C   tau(   1) = (   0.1725202   0.0000000  -0.4642322  )
         2           C   tau(   2) = (   0.1725202  -0.0001146  -0.1549764  )
         3           C   tau(   3) = (   0.1682994   0.0379280  -0.2652761  )
         4           C   tau(   4) = (   0.1074076   0.1350068  -0.2876138  )
         5           C   tau(   5) = (   0.0749958   0.1553669  -0.3979135  )
         6           C   tau(   6) = (  -0.0388924   0.1680792  -0.4202512  )
         7           C   tau(   7) = (   0.1683246   0.0378162   0.0439797  )
         8           C   tau(   8) = (   0.1558435   0.0740002  -0.0663200  )
         9           C   tau(   9) = (   0.0750989   0.1553170  -0.0886577  )
        10           C   tau(  10) = (   0.0390040   0.1680533  -0.1989574  )
        11           C   tau(  11) = (  -0.0748926   0.1554167  -0.2212951  )
        12           C   tau(  12) = (  -0.1073179   0.1350782  -0.3315948  )
        13           C   tau(  13) = (  -0.1682742   0.0380399  -0.3539325  )
        14           C   tau(  14) = (  -0.1725202   0.0000000  -0.4642322  )
        15           C   tau(  15) = (   0.1558926   0.0738967   0.2429357  )
        16           C   tau(  16) = (   0.1357620   0.1064515   0.1326361  )
        17           C   tau(  17) = (   0.0391157   0.1680274   0.1102984  )
        18           C   tau(  18) = (   0.0011038   0.1725167  -0.0000013  )
        19           C   tau(  19) = (  -0.1072281   0.1351494  -0.0223390  )
        20           C   tau(  20) = (  -0.1343888   0.1081799  -0.1326387  )
        21           C   tau(  21) = (  -0.1725202   0.0001146  -0.1549764  )
        22           C   tau(  22) = (  -0.1682994  -0.0379280  -0.2652761  )
        23           C   tau(  23) = (  -0.1074076  -0.1350068  -0.2876138  )
        24           C   tau(  24) = (  -0.0749958  -0.1553669  -0.3979135  )
        25           C   tau(  25) = (   0.0388924  -0.1680792  -0.4202512  )
        26           C   tau(  26) = (   0.1358327   0.1063613   0.4418918  )
        27           C   tau(  27) = (   0.1090374   0.1336939   0.3315921  )
        28           C   tau(  28) = (   0.0012184   0.1725160   0.3092544  )
        29           C   tau(  29) = (  -0.0368505   0.1685387   0.1989547  )
        30           C   tau(  30) = (  -0.1343169   0.1082691   0.1766171  )
        31           C   tau(  31) = (  -0.1548839   0.0759883   0.0663174  )
        32           C   tau(  32) = (  -0.1683246  -0.0378162   0.0439797  )
        33           C   tau(  33) = (  -0.1558435  -0.0740002  -0.0663200  )
        34           C   tau(  34) = (  -0.0750989  -0.1553170  -0.0886577  )
        35           C   tau(  35) = (  -0.0390040  -0.1680533  -0.1989574  )
        36           C   tau(  36) = (   0.0748926  -0.1554167  -0.2212951  )
        37           C   tau(  37) = (   0.1073179  -0.1350782  -0.3315948  )
        38           C   tau(  38) = (   0.1682742  -0.0380399  -0.3539325  )
        39           C   tau(  39) = (  -0.0730017   0.1563138   0.3979108  )
        40           C   tau(  40) = (  -0.1548334   0.0760911   0.3755731  )
        41           C   tau(  41) = (  -0.1678004   0.0400784   0.2652734  )
        42           C   tau(  42) = (  -0.1558926  -0.0738967   0.2429357  )
        43           C   tau(  43) = (  -0.1357620  -0.1064515   0.1326361  )
        44           C   tau(  44) = (  -0.0391157  -0.1680274   0.1102984  )
        45           C   tau(  45) = (  -0.0011038  -0.1725167  -0.0000013  )
        46           C   tau(  46) = (   0.1072281  -0.1351494  -0.0223390  )
        47           C   tau(  47) = (   0.1343888  -0.1081799  -0.1326387  )
        48           C   tau(  48) = (  -0.1358327  -0.1063613   0.4418918  )
        49           C   tau(  49) = (  -0.1090374  -0.1336939   0.3315921  )
        50           C   tau(  50) = (  -0.0012184  -0.1725160   0.3092544  )
        51           C   tau(  51) = (   0.0368505  -0.1685387   0.1989547  )
        52           C   tau(  52) = (   0.1343169  -0.1082691   0.1766171  )
        53           C   tau(  53) = (   0.1548839  -0.0759883   0.0663174  )
        54           C   tau(  54) = (   0.0730017  -0.1563138   0.3979108  )
        55           C   tau(  55) = (   0.1548334  -0.0760911   0.3755731  )
        56           C   tau(  56) = (   0.1678004  -0.0400784   0.2652734  )

   Crystallographic axes

     site n.     atom                  positions (cryst. coord.)
         1           C   tau(   1) = (  0.1725202  0.0000000 -0.5048432  )
         2           C   tau(   2) = (  0.1725202 -0.0001146 -0.1685337  )
         3           C   tau(   3) = (  0.1682994  0.0379280 -0.2884824  )
         4           C   tau(   4) = (  0.1074076  0.1350068 -0.3127742  )
         5           C   tau(   5) = (  0.0749958  0.1553669 -0.4327229  )
         6           C   tau(   6) = ( -0.0388924  0.1680792 -0.4570147  )
         7           C   tau(   7) = (  0.1683246  0.0378162  0.0478270  )
         8           C   tau(   8) = (  0.1558435  0.0740002 -0.0721217  )
         9           C   tau(   9) = (  0.0750989  0.1553170 -0.0964135  )
        10           C   tau(  10) = (  0.0390040  0.1680533 -0.2163621  )
        11           C   tau(  11) = ( -0.0748926  0.1554167 -0.2406539  )
        12           C   tau(  12) = ( -0.1073179  0.1350782 -0.3606027  )
        13           C   tau(  13) = ( -0.1682742  0.0380399 -0.3848945  )
        14           C   tau(  14) = ( -0.1725202  0.0000000 -0.5048432  )
        15           C   tau(  15) = (  0.1558926  0.0738967  0.2641877  )
        16           C   tau(  16) = (  0.1357620  0.1064515  0.1442391  )
        17           C   tau(  17) = (  0.0391157  0.1680274  0.1199473  )
        18           C   tau(  18) = (  0.0011038  0.1725167 -0.0000014  )
        19           C   tau(  19) = ( -0.1072281  0.1351494 -0.0242932  )
        20           C   tau(  20) = ( -0.1343888  0.1081799 -0.1442420  )
        21           C   tau(  21) = ( -0.1725202  0.0001146 -0.1685337  )
        22           C   tau(  22) = ( -0.1682994 -0.0379280 -0.2884824  )
        23           C   tau(  23) = ( -0.1074076 -0.1350068 -0.3127742  )
        24           C   tau(  24) = ( -0.0749958 -0.1553669 -0.4327229  )
        25           C   tau(  25) = (  0.0388924 -0.1680792 -0.4570147  )
        26           C   tau(  26) = (  0.1358327  0.1063613  0.4805485  )
        27           C   tau(  27) = (  0.1090374  0.1336939  0.3605998  )
        28           C   tau(  28) = (  0.0012184  0.1725160  0.3363080  )
        29           C   tau(  29) = ( -0.0368505  0.1685387  0.2163593  )
        30           C   tau(  30) = ( -0.1343169  0.1082691  0.1920675  )
        31           C   tau(  31) = ( -0.1548839  0.0759883  0.0721188  )
        32           C   tau(  32) = ( -0.1683246 -0.0378162  0.0478270  )
        33           C   tau(  33) = ( -0.1558435 -0.0740002 -0.0721217  )
        34           C   tau(  34) = ( -0.0750989 -0.1553170 -0.0964135  )
        35           C   tau(  35) = ( -0.0390040 -0.1680533 -0.2163621  )
        36           C   tau(  36) = (  0.0748926 -0.1554167 -0.2406539  )
        37           C   tau(  37) = (  0.1073179 -0.1350782 -0.3606027  )
        38           C   tau(  38) = (  0.1682742 -0.0380399 -0.3848945  )
        39           C   tau(  39) = ( -0.0730017  0.1563138  0.4327201  )
        40           C   tau(  40) = ( -0.1548334  0.0760911  0.4084283  )
        41           C   tau(  41) = ( -0.1678004  0.0400784  0.2884795  )
        42           C   tau(  42) = ( -0.1558926 -0.0738967  0.2641877  )
        43           C   tau(  43) = ( -0.1357620 -0.1064515  0.1442391  )
        44           C   tau(  44) = ( -0.0391157 -0.1680274  0.1199473  )
        45           C   tau(  45) = ( -0.0011038 -0.1725167 -0.0000014  )
        46           C   tau(  46) = (  0.1072281 -0.1351494 -0.0242932  )
        47           C   tau(  47) = (  0.1343888 -0.1081799 -0.1442420  )
        48           C   tau(  48) = ( -0.1358327 -0.1063613  0.4805485  )
        49           C   tau(  49) = ( -0.1090374 -0.1336939  0.3605998  )
        50           C   tau(  50) = ( -0.0012184 -0.1725160  0.3363080  )
        51           C   tau(  51) = (  0.0368505 -0.1685387  0.2163593  )
        52           C   tau(  52) = (  0.1343169 -0.1082691  0.1920675  )
        53           C   tau(  53) = (  0.1548839 -0.0759883  0.0721188  )
        54           C   tau(  54) = (  0.0730017 -0.1563138  0.4327201  )
        55           C   tau(  55) = (  0.1548334 -0.0760911  0.4084283  )
        56           C   tau(  56) = (  0.1678004 -0.0400784  0.2884795  )

     number of k points=    12
                       cart. coord. in units 2pi/alat
        k(    1) = (   0.0000000   0.0000000   0.0000000), wk =   0.0869565
        k(    2) = (   0.0000000   0.0000000   0.0472817), wk =   0.1739130
        k(    3) = (   0.0000000   0.0000000   0.0945635), wk =   0.1739130
        k(    4) = (   0.0000000   0.0000000   0.1418452), wk =   0.1739130
        k(    5) = (   0.0000000   0.0000000   0.1891270), wk =   0.1739130
        k(    6) = (   0.0000000   0.0000000   0.2364087), wk =   0.1739130
        k(    7) = (   0.0000000   0.0000000   0.2836904), wk =   0.1739130
        k(    8) = (   0.0000000   0.0000000   0.3309722), wk =   0.1739130
        k(    9) = (   0.0000000   0.0000000   0.3782539), wk =   0.1739130
        k(   10) = (   0.0000000   0.0000000   0.4255356), wk =   0.1739130
        k(   11) = (   0.0000000   0.0000000   0.4728174), wk =   0.1739130
        k(   12) = (   0.0000000   0.0000000   0.5200991), wk =   0.1739130

                       cryst. coord.
        k(    1) = (   0.0000000   0.0000000   0.0000000), wk =   0.0869565
        k(    2) = (   0.0000000   0.0000000   0.0434783), wk =   0.1739130
        k(    3) = (   0.0000000   0.0000000   0.0869565), wk =   0.1739130
        k(    4) = (   0.0000000   0.0000000   0.1304348), wk =   0.1739130
        k(    5) = (   0.0000000   0.0000000   0.1739130), wk =   0.1739130
        k(    6) = (   0.0000000   0.0000000   0.2173913), wk =   0.1739130
        k(    7) = (   0.0000000   0.0000000   0.2608696), wk =   0.1739130
        k(    8) = (   0.0000000   0.0000000   0.3043478), wk =   0.1739130
        k(    9) = (   0.0000000   0.0000000   0.3478261), wk =   0.1739130
        k(   10) = (   0.0000000   0.0000000   0.3913043), wk =   0.1739130
        k(   11) = (   0.0000000   0.0000000   0.4347826), wk =   0.1739130
        k(   12) = (   0.0000000   0.0000000   0.4782609), wk =   0.1739130

     Dense  grid:   534491 G-vectors     FFT dimensions: ( 108, 108,  96)

     Dynamical RAM for                 wfc:       7.13 MB

     Dynamical RAM for     wfc (w. buffer):      92.73 MB

     Dynamical RAM for           str. fact:       0.51 MB

     Dynamical RAM for           local pot:       0.00 MB

     Dynamical RAM for          nlocal pot:       3.57 MB

     Dynamical RAM for                qrad:       0.04 MB

     Dynamical RAM for          rho,v,vnew:       3.13 MB

     Dynamical RAM for               rhoin:       1.04 MB

     Dynamical RAM for            rho*nmix:       8.16 MB

     Dynamical RAM for           G-vectors:       2.17 MB

     Dynamical RAM for          h,s,v(r/c):       2.30 MB

     Dynamical RAM for          <psi|beta>:       0.10 MB

     Dynamical RAM for                 psi:      28.53 MB

     Dynamical RAM for                hpsi:      28.53 MB

     Dynamical RAM for      wfcinit/wfcrot:      29.68 MB

     Estimated static dynamical RAM per process >     115.03 MB

     Estimated max dynamical RAM per process >     174.49 MB

     Estimated total dynamical RAM >       2.73 GB

     Initial potential from superposition of free atoms
     Check: negative starting charge=   -0.019048

     starting charge  223.99840, renormalised to  224.00000

     negative rho (up, down):  1.905E-02 0.000E+00
     Starting wfc are  224 randomized atomic wfcs

     total cpu time spent up to now is        9.9 secs

     Self-consistent Calculation

     iteration #  1     ecut=    50.00 Ry     beta= 0.70
     Davidson diagonalization with overlap
     ethr =  1.00E-02,  avg # of iterations =  2.0

     negative rho (up, down):  4.774E-03 0.000E+00

     total cpu time spent up to now is       28.3 secs

     total energy              =    -633.50307562 Ry
     Harris-Foulkes estimate   =    -638.02669086 Ry
     estimated scf accuracy    <       6.86366800 Ry

     iteration #  2     ecut=    50.00 Ry     beta= 0.70
     Davidson diagonalization with overlap
     ethr =  3.06E-03,  avg # of iterations =  2.3

     negative rho (up, down):  1.526E-03 0.000E+00

     total cpu time spent up to now is       46.6 secs

     total energy              =    -634.40753541 Ry
     Harris-Foulkes estimate   =    -635.59941169 Ry
     estimated scf accuracy    <       1.79455434 Ry

     iteration #  3     ecut=    50.00 Ry     beta= 0.70
     Davidson diagonalization with overlap
     ethr =  8.01E-04,  avg # of iterations =  4.0

     negative rho (up, down):  4.185E-04 0.000E+00

     total cpu time spent up to now is       65.1 secs

     total energy              =    -634.98645639 Ry
     Harris-Foulkes estimate   =    -635.27226665 Ry
     estimated scf accuracy    <       0.56883649 Ry

     iteration #  4     ecut=    50.00 Ry     beta= 0.70
     Davidson diagonalization with overlap
     ethr =  2.54E-04,  avg # of iterations =  4.2

     negative rho (up, down):  2.015E-04 0.000E+00

     total cpu time spent up to now is       83.5 secs

     total energy              =    -635.09616930 Ry
     Harris-Foulkes estimate   =    -635.13189220 Ry
     estimated scf accuracy    <       0.08125637 Ry

     iteration #  5     ecut=    50.00 Ry     beta= 0.70
     Davidson diagonalization with overlap
     ethr =  3.63E-05,  avg # of iterations =  5.0

     negative rho (up, down):  7.397E-07 0.000E+00

     total cpu time spent up to now is      101.2 secs

     total energy              =    -635.11408430 Ry
     Harris-Foulkes estimate   =    -635.11586547 Ry
     estimated scf accuracy    <       0.00494969 Ry

     iteration #  6     ecut=    50.00 Ry     beta= 0.70
     Davidson diagonalization with overlap
     ethr =  2.21E-06,  avg # of iterations =  5.0

     total cpu time spent up to now is      120.2 secs

     total energy              =    -635.11516622 Ry
     Harris-Foulkes estimate   =    -635.11547075 Ry
     estimated scf accuracy    <       0.00067828 Ry

     iteration #  7     ecut=    50.00 Ry     beta= 0.70
     Davidson diagonalization with overlap
     ethr =  3.03E-07,  avg # of iterations =  4.0

     total cpu time spent up to now is      138.4 secs

     total energy              =    -635.11529801 Ry
     Harris-Foulkes estimate   =    -635.11533250 Ry
     estimated scf accuracy    <       0.00007704 Ry

     iteration #  8     ecut=    50.00 Ry     beta= 0.70
     Davidson diagonalization with overlap
     ethr =  3.44E-08,  avg # of iterations =  4.0

     total cpu time spent up to now is      157.5 secs

     total energy              =    -635.11531524 Ry
     Harris-Foulkes estimate   =    -635.11532042 Ry
     estimated scf accuracy    <       0.00001191 Ry

     iteration #  9     ecut=    50.00 Ry     beta= 0.70
     Davidson diagonalization with overlap
     ethr =  5.32E-09,  avg # of iterations =  4.0

     total cpu time spent up to now is      176.0 secs

     total energy              =    -635.11531782 Ry
     Harris-Foulkes estimate   =    -635.11531850 Ry
     estimated scf accuracy    <       0.00000137 Ry

     iteration # 10     ecut=    50.00 Ry     beta= 0.70
     Davidson diagonalization with overlap
     ethr =  6.13E-10,  avg # of iterations =  5.4

     total cpu time spent up to now is      196.4 secs

     total energy              =    -635.11531811 Ry
     Harris-Foulkes estimate   =    -635.11531833 Ry
     estimated scf accuracy    <       0.00000049 Ry

     iteration # 11     ecut=    50.00 Ry     beta= 0.70
     Davidson diagonalization with overlap
     ethr =  2.18E-10,  avg # of iterations =  5.0

     total cpu time spent up to now is      215.5 secs

     End of self-consistent calculation

          k = 0.0000 0.0000 0.0000 ( 66731 PWs)   bands (ev):

   -21.5287 -20.7100 -20.5903 -20.5897 -20.5230 -19.7985 -19.7770 -19.6119
   -19.5833 -18.3381 -18.2636 -18.1567 -18.0495 -17.5513 -17.4994 -17.3367
   -17.3356 -17.3166 -17.2758 -17.2226 -17.1503 -15.5267 -15.3779 -15.2360
   -15.2353 -15.2317 -14.6841 -14.5324 -14.5020 -14.0667 -14.0035 -13.9286
   -13.9019 -13.4621 -13.3972 -13.3026 -13.1549 -12.1114 -12.1099 -11.6809
   -11.5831 -11.5797 -11.5336 -11.4296 -11.4251 -11.3638 -11.3060 -10.7725
   -10.7693 -10.5117 -10.4967  -9.9163  -9.2650  -9.1555  -9.1411  -9.0893
    -9.0407  -8.9721  -8.9519  -8.9326  -8.9086  -8.8683  -8.8412  -8.8037
    -8.7985  -8.7268  -8.6944  -8.6296  -8.6257  -8.5812  -8.2272  -7.9457
    -7.8707  -7.8295  -7.7775  -7.6184  -7.5783  -7.4993  -7.4641  -6.9159
    -6.8686  -6.5393  -6.4044  -6.2479  -6.1991  -5.8691  -5.8644  -5.8023
    -5.7906  -5.7734  -5.6552  -5.5464  -5.3725  -5.2765  -5.1840  -4.6062
    -4.5878  -4.5124  -4.5082  -4.4443  -4.4263  -4.4207  -4.3481  -4.2970
    -4.2919  -3.1175  -2.6830  -2.5846  -2.4743  -2.2674  -1.7413  -1.6605

     occupation numbers 
     1.0000   1.0000   1.0000   1.0000   1.0000   1.0000   1.0000   1.0000
     1.0000   1.0000   1.0000   1.0000   1.0000   1.0000   1.0000   1.0000
     1.0000   1.0000   1.0000   1.0000   1.0000   1.0000   1.0000   1.0000
     1.0000   1.0000   1.0000   1.0000   1.0000   1.0000   1.0000   1.0000
     1.0000   1.0000   1.0000   1.0000   1.0000   1.0000   1.0000   1.0000
     1.0000   1.0000   1.0000   1.0000   1.0000   1.0000   1.0000   1.0000
     1.0000   1.0000   1.0000   1.0000   1.0000   1.0000   1.0000   1.0000
     1.0000   1.0000   1.0000   1.0000   1.0000   1.0000   1.0000   1.0000
     1.0000   1.0000   1.0000   1.0000   1.0000   1.0000   1.0000   1.0000
     1.0000   1.0000   1.0000   1.0000   1.0000   1.0000   1.0000   1.0000
     1.0000   1.0000   1.0000   1.0000   1.0000   1.0000   1.0000   1.0000
     1.0000   1.0000   1.0000   1.0000   1.0000   1.0000   1.0000   1.0000
     1.0000   1.0000   1.0000   1.0000   1.0000   1.0000   1.0000   1.0000
     1.0000   1.0000   1.0000   1.0000   1.0000   1.0000   1.0000   1.0000

          k = 0.0000 0.0000 0.0473 ( 66771 PWs)   bands (ev):

   -21.5275 -20.7331 -20.5891 -20.5885 -20.4965 -19.8181 -19.8016 -19.5844
   -19.5605 -18.3409 -18.2706 -18.2401 -17.9525 -17.5681 -17.5202 -17.4151
   -17.3785 -17.3168 -17.2925 -17.1179 -17.0681 -15.5268 -15.4082 -15.3169
   -15.2347 -15.1620 -14.6561 -14.5699 -14.4692 -14.0980 -14.0808 -13.9119
   -13.7881 -13.5642 -13.4311 -13.2969 -13.0265 -12.2367 -11.9835 -11.7188
   -11.6446 -11.5541 -11.5515 -11.5029 -11.4754 -11.2670 -11.1758 -10.8071
   -10.7440 -10.5237 -10.4697  -9.9147  -9.3105  -9.2526  -9.1465  -9.1169
    -9.0484  -8.9660  -8.9619  -8.9251  -8.9085  -8.8743  -8.8703  -8.7986
    -8.7727  -8.7379  -8.7190  -8.6281  -8.5621  -8.4697  -8.2195  -7.9770
    -7.8454  -7.8235  -7.7856  -7.6740  -7.5586  -7.5283  -7.3914  -7.0501
    -6.7316  -6.5414  -6.3996  -6.2487  -6.2007  -5.9405  -5.8732  -5.8722
    -5.7947  -5.7205  -5.5535  -5.5511  -5.3756  -5.2753  -5.1827  -4.6792
    -4.6764  -4.5267  -4.4455  -4.4281  -4.4278  -4.3646  -4.3533  -4.2973
    -4.2463  -3.1219  -2.6942  -2.5962  -2.4767  -2.2639  -1.7603  -1.6563

     occupation numbers 
     1.0000   1.0000   1.0000   1.0000   1.0000   1.0000   1.0000   1.0000
     1.0000   1.0000   1.0000   1.0000   1.0000   1.0000   1.0000   1.0000
     1.0000   1.0000   1.0000   1.0000   1.0000   1.0000   1.0000   1.0000
     1.0000   1.0000   1.0000   1.0000   1.0000   1.0000   1.0000   1.0000
     1.0000   1.0000   1.0000   1.0000   1.0000   1.0000   1.0000   1.0000
     1.0000   1.0000   1.0000   1.0000   1.0000   1.0000   1.0000   1.0000
     1.0000   1.0000   1.0000   1.0000   1.0000   1.0000   1.0000   1.0000
     1.0000   1.0000   1.0000   1.0000   1.0000   1.0000   1.0000   1.0000
     1.0000   1.0000   1.0000   1.0000   1.0000   1.0000   1.0000   1.0000
     1.0000   1.0000   1.0000   1.0000   1.0000   1.0000   1.0000   1.0000
     1.0000   1.0000   1.0000   1.0000   1.0000   1.0000   1.0000   1.0000
     1.0000   1.0000   1.0000   1.0000   1.0000   1.0000   1.0000   1.0000
     1.0000   1.0000   1.0000   1.0000   1.0000   1.0000   1.0000   1.0000
     1.0000   1.0000   1.0000   1.0000   1.0000   1.0000   1.0000   1.0000

          k = 0.0000 0.0000 0.0946 ( 66751 PWs)   bands (ev):

   -21.5234 -20.7820 -20.5852 -20.5845 -20.4373 -19.8617 -19.8510 -19.5248
   -19.5068 -18.4016 -18.3207 -18.2540 -17.8135 -17.6057 -17.5644 -17.5396
   -17.5079 -17.2683 -17.2380 -16.9841 -16.9346 -15.5265 -15.4840 -15.4074
   -15.2301 -15.1181 -14.6207 -14.5821 -14.4348 -14.1966 -14.1122 -13.8732
   -13.6860 -13.6248 -13.6067 -13.1839 -12.8436 -12.3599 -11.8587 -11.8381
   -11.6927 -11.6838 -11.5973 -11.4991 -11.4134 -11.1023 -11.0219 -10.8446
   -10.7324 -10.5200 -10.4273  -9.9099  -9.4105  -9.4045  -9.2227  -9.1617
    -9.0877  -9.0562  -8.9709  -8.9643  -8.9291  -8.8992  -8.8655  -8.8451
    -8.7048  -8.6716  -8.6507  -8.5222  -8.4677  -8.3607  -8.1812  -8.0274
    -7.8348  -7.8184  -7.7821  -7.7346  -7.6185  -7.4723  -7.2904  -7.1989
    -6.5727  -6.5463  -6.3873  -6.2500  -6.2067  -6.0408  -6.0083  -5.8922
    -5.7787  -5.6240  -5.5640  -5.4066  -5.3848  -5.2710  -5.1778  -4.8047
    -4.7859  -4.5682  -4.4940  -4.4378  -4.3738  -4.3168  -4.2542  -4.2335
    -4.1817  -3.1354  -2.7277  -2.6293  -2.4827  -2.2525  -1.8076  -1.6524

     occupation numbers 
     1.0000   1.0000   1.0000   1.0000   1.0000   1.0000   1.0000   1.0000
     1.0000   1.0000   1.0000   1.0000   1.0000   1.0000   1.0000   1.0000
     1.0000   1.0000   1.0000   1.0000   1.0000   1.0000   1.0000   1.0000
     1.0000   1.0000   1.0000   1.0000   1.0000   1.0000   1.0000   1.0000
     1.0000   1.0000   1.0000   1.0000   1.0000   1.0000   1.0000   1.0000
     1.0000   1.0000   1.0000   1.0000   1.0000   1.0000   1.0000   1.0000
     1.0000   1.0000   1.0000   1.0000   1.0000   1.0000   1.0000   1.0000
     1.0000   1.0000   1.0000   1.0000   1.0000   1.0000   1.0000   1.0000
     1.0000   1.0000   1.0000   1.0000   1.0000   1.0000   1.0000   1.0000
     1.0000   1.0000   1.0000   1.0000   1.0000   1.0000   1.0000   1.0000
     1.0000   1.0000   1.0000   1.0000   1.0000   1.0000   1.0000   1.0000
     1.0000   1.0000   1.0000   1.0000   1.0000   1.0000   1.0000   1.0000
     1.0000   1.0000   1.0000   1.0000   1.0000   1.0000   1.0000   1.0000
     1.0000   1.0000   1.0000   1.0000   1.0000   1.0000   1.0000   1.0000

          k = 0.0000 0.0000 0.1418 ( 66783 PWs)   bands (ev):

   -21.5168 -20.8375 -20.5790 -20.5781 -20.3652 -19.9134 -19.9061 -19.4533
   -19.4386 -18.5286 -18.3206 -18.2486 -17.6853 -17.6672 -17.6381 -17.6378
   -17.6118 -17.2062 -17.1712 -16.8463 -16.7923 -15.5806 -15.5263 -15.5066
   -15.2227 -15.1210 -14.6725 -14.4797 -14.4200 -14.2461 -14.1514 -13.8313
   -13.8008 -13.7638 -13.4531 -13.0888 -12.6575 -12.4772 -11.9920 -11.8560
   -11.7613 -11.6668 -11.6199 -11.4919 -11.3151 -10.9495 -10.9053 -10.8378
   -10.7343 -10.4956 -10.3781  -9.9021  -9.5734  -9.5232  -9.3613  -9.2144
    -9.1968  -9.1352  -9.0159  -9.0136  -9.0045  -8.9366  -8.8394  -8.8175
    -8.6117  -8.5645  -8.5489  -8.4112  -8.3697  -8.3113  -8.1069  -8.0535
    -7.8944  -7.8328  -7.7685  -7.7311  -7.6662  -7.4271  -7.3396  -7.1788
    -6.5521  -6.4173  -6.3734  -6.2466  -6.2182  -6.1468  -6.1371  -5.9129
    -5.7620  -5.5860  -5.5278  -5.4021  -5.2696  -5.2485  -5.1695  -4.9306
    -4.8977  -4.6167  -4.5494  -4.4531  -4.4074  -4.2061  -4.1959  -4.1099
    -4.0940  -3.1577  -2.7833  -2.6803  -2.4907  -2.2347  -1.8737  -1.6568

     occupation numbers 
     1.0000   1.0000   1.0000   1.0000   1.0000   1.0000   1.0000   1.0000
     1.0000   1.0000   1.0000   1.0000   1.0000   1.0000   1.0000   1.0000
     1.0000   1.0000   1.0000   1.0000   1.0000   1.0000   1.0000   1.0000
     1.0000   1.0000   1.0000   1.0000   1.0000   1.0000   1.0000   1.0000
     1.0000   1.0000   1.0000   1.0000   1.0000   1.0000   1.0000   1.0000
     1.0000   1.0000   1.0000   1.0000   1.0000   1.0000   1.0000   1.0000
     1.0000   1.0000   1.0000   1.0000   1.0000   1.0000   1.0000   1.0000
     1.0000   1.0000   1.0000   1.0000   1.0000   1.0000   1.0000   1.0000
     1.0000   1.0000   1.0000   1.0000   1.0000   1.0000   1.0000   1.0000
     1.0000   1.0000   1.0000   1.0000   1.0000   1.0000   1.0000   1.0000
     1.0000   1.0000   1.0000   1.0000   1.0000   1.0000   1.0000   1.0000
     1.0000   1.0000   1.0000   1.0000   1.0000   1.0000   1.0000   1.0000
     1.0000   1.0000   1.0000   1.0000   1.0000   1.0000   1.0000   1.0000
     1.0000   1.0000   1.0000   1.0000   1.0000   1.0000   1.0000   1.0000

          k = 0.0000 0.0000 0.1891 ( 66811 PWs)   bands (ev):

   -21.5077 -20.8928 -20.5706 -20.5695 -20.2864 -19.9660 -19.9605 -19.3756
   -19.3625 -18.6585 -18.3148 -18.2406 -17.7935 -17.7662 -17.7058 -17.6691
   -17.5088 -17.1364 -17.0976 -16.7072 -16.6463 -15.6847 -15.6121 -15.5264
   -15.2128 -15.1801 -14.7234 -14.4416 -14.3619 -14.2349 -14.1947 -13.9669
   -13.8503 -13.7587 -13.2782 -13.0206 -12.6106 -12.4499 -12.1527 -12.0225
   -11.7217 -11.6389 -11.5581 -11.4792 -11.2109 -10.9538 -10.7838 -10.7369
   -10.6937 -10.4570 -10.3249  -9.8915  -9.7323  -9.6595  -9.5128  -9.3268
    -9.2789  -9.2690  -9.0977  -9.0628  -9.0026  -8.9493  -8.8168  -8.7893
    -8.5448  -8.4539  -8.4237  -8.3225  -8.2786  -8.2728  -8.1406  -7.9905
    -7.9341  -7.8314  -7.7935  -7.7034  -7.6829  -7.4675  -7.3920  -7.0586
    -6.5574  -6.3660  -6.3062  -6.2680  -6.2399  -6.2292  -6.2014  -5.9317
    -5.7464  -5.6133  -5.4332  -5.4254  -5.2564  -5.1610  -5.0934  -5.0542
    -5.0092  -4.6662  -4.6051  -4.4740  -4.4505  -4.1318  -4.0982  -4.0340
    -3.9513  -3.1879  -2.8608  -2.7439  -2.5002  -2.2122  -1.9542  -1.6702

     occupation numbers 
     1.0000   1.0000   1.0000   1.0000   1.0000   1.0000   1.0000   1.0000
     1.0000   1.0000   1.0000   1.0000   1.0000   1.0000   1.0000   1.0000
     1.0000   1.0000   1.0000   1.0000   1.0000   1.0000   1.0000   1.0000
     1.0000   1.0000   1.0000   1.0000   1.0000   1.0000   1.0000   1.0000
     1.0000   1.0000   1.0000   1.0000   1.0000   1.0000   1.0000   1.0000
     1.0000   1.0000   1.0000   1.0000   1.0000   1.0000   1.0000   1.0000
     1.0000   1.0000   1.0000   1.0000   1.0000   1.0000   1.0000   1.0000
     1.0000   1.0000   1.0000   1.0000   1.0000   1.0000   1.0000   1.0000
     1.0000   1.0000   1.0000   1.0000   1.0000   1.0000   1.0000   1.0000
     1.0000   1.0000   1.0000   1.0000   1.0000   1.0000   1.0000   1.0000
     1.0000   1.0000   1.0000   1.0000   1.0000   1.0000   1.0000   1.0000
     1.0000   1.0000   1.0000   1.0000   1.0000   1.0000   1.0000   1.0000
     1.0000   1.0000   1.0000   1.0000   1.0000   1.0000   1.0000   1.0000
     1.0000   1.0000   1.0000   1.0000   1.0000   1.0000   1.0000   1.0000

          k = 0.0000 0.0000 0.2364 ( 66820 PWs)   bands (ev):

   -21.4964 -20.9458 -20.5600 -20.5584 -20.2022 -20.0170 -20.0124 -19.2932
   -19.2812 -18.7865 -18.3064 -18.2300 -17.9178 -17.8920 -17.7500 -17.7182
   -17.3579 -17.0614 -17.0193 -16.5672 -16.4969 -15.7913 -15.7209 -15.5265
   -15.2856 -15.1997 -14.7729 -14.5137 -14.2358 -14.2332 -14.1705 -14.1375
   -13.8590 -13.7022 -13.1033 -12.9836 -12.7214 -12.3141 -12.2602 -12.1898
   -11.6695 -11.6603 -11.4636 -11.4242 -11.1015 -10.9960 -10.7756 -10.5991
   -10.5521 -10.4098 -10.2712  -9.8924  -9.8670  -9.8091  -9.6710  -9.4628
    -9.4296  -9.3233  -9.1895  -9.1059  -8.9886  -8.9559  -8.8121  -8.7617
    -8.4785  -8.3785  -8.3011  -8.2897  -8.1954  -8.1841  -8.1753  -8.0852
    -7.8305  -7.8174  -7.7904  -7.7313  -7.6399  -7.5735  -7.3707  -6.9321
    -6.5619  -6.4044  -6.3700  -6.3606  -6.2665  -6.2003  -6.0802  -5.9466
    -5.7334  -5.6442  -5.4532  -5.3422  -5.2447  -5.1737  -5.1466  -5.1192
    -4.9358  -4.7143  -4.6591  -4.5074  -4.4987  -4.0651  -3.9952  -3.9550
    -3.8068  -3.2253  -2.9586  -2.8160  -2.5101  -2.1874  -2.0459  -1.6911

     occupation numbers 
     1.0000   1.0000   1.0000   1.0000   1.0000   1.0000   1.0000   1.0000
     1.0000   1.0000   1.0000   1.0000   1.0000   1.0000   1.0000   1.0000
     1.0000   1.0000   1.0000   1.0000   1.0000   1.0000   1.0000   1.0000
     1.0000   1.0000   1.0000   1.0000   1.0000   1.0000   1.0000   1.0000
     1.0000   1.0000   1.0000   1.0000   1.0000   1.0000   1.0000   1.0000
     1.0000   1.0000   1.0000   1.0000   1.0000   1.0000   1.0000   1.0000
     1.0000   1.0000   1.0000   1.0000   1.0000   1.0000   1.0000   1.0000
     1.0000   1.0000   1.0000   1.0000   1.0000   1.0000   1.0000   1.0000
     1.0000   1.0000   1.0000   1.0000   1.0000   1.0000   1.0000   1.0000
     1.0000   1.0000   1.0000   1.0000   1.0000   1.0000   1.0000   1.0000
     1.0000   1.0000   1.0000   1.0000   1.0000   1.0000   1.0000   1.0000
     1.0000   1.0000   1.0000   1.0000   1.0000   1.0000   1.0000   1.0000
     1.0000   1.0000   1.0000   1.0000   1.0000   1.0000   1.0000   1.0000
     1.0000   1.0000   1.0000   1.0000   1.0000   1.0000   1.0000   1.0000

          k = 0.0000 0.0000 0.2837 ( 66824 PWs)   bands (ev):

   -21.4831 -20.9953 -20.5476 -20.5456 -20.1141 -20.0647 -20.0603 -19.2077
   -19.1959 -18.9118 -18.2964 -18.2175 -18.0393 -18.0146 -17.7920 -17.7644
   -17.2033 -16.9826 -16.9373 -16.4285 -16.3454 -15.8979 -15.8305 -15.5268
   -15.4196 -15.1838 -14.8207 -14.6281 -14.3033 -14.2613 -14.1099 -14.0664
   -13.8310 -13.6407 -12.9773 -12.9327 -12.8330 -12.4703 -12.3563 -12.0656
   -11.6860 -11.5865 -11.4450 -11.2845 -11.0415 -10.9886 -10.7859 -10.4738
   -10.4038 -10.3502 -10.2301 -10.0034  -9.9695  -9.8590  -9.8351  -9.6090
    -9.5729  -9.3754  -9.2808  -9.1370  -8.9780  -8.9587  -8.8337  -8.7346
    -8.4153  -8.3583  -8.2579  -8.2450  -8.2236  -8.1323  -8.0843  -8.0702
    -7.8435  -7.8283  -7.7526  -7.6560  -7.6526  -7.5944  -7.3634  -6.8043
    -6.5660  -6.5201  -6.4583  -6.3859  -6.3010  -6.1566  -5.9555  -5.9294
    -5.7232  -5.6812  -5.4845  -5.2880  -5.2567  -5.2289  -5.2264  -5.1300
    -4.7828  -4.7529  -4.7102  -4.5717  -4.5328  -3.9967  -3.8990  -3.8739
    -3.6614  -3.2692  -3.0731  -2.8941  -2.5196  -2.1771  -2.1299  -1.7182

     occupation numbers 
     1.0000   1.0000   1.0000   1.0000   1.0000   1.0000   1.0000   1.0000
     1.0000   1.0000   1.0000   1.0000   1.0000   1.0000   1.0000   1.0000
     1.0000   1.0000   1.0000   1.0000   1.0000   1.0000   1.0000   1.0000
     1.0000   1.0000   1.0000   1.0000   1.0000   1.0000   1.0000   1.0000
     1.0000   1.0000   1.0000   1.0000   1.0000   1.0000   1.0000   1.0000
     1.0000   1.0000   1.0000   1.0000   1.0000   1.0000   1.0000   1.0000
     1.0000   1.0000   1.0000   1.0000   1.0000   1.0000   1.0000   1.0000
     1.0000   1.0000   1.0000   1.0000   1.0000   1.0000   1.0000   1.0000
     1.0000   1.0000   1.0000   1.0000   1.0000   1.0000   1.0000   1.0000
     1.0000   1.0000   1.0000   1.0000   1.0000   1.0000   1.0000   1.0000
     1.0000   1.0000   1.0000   1.0000   1.0000   1.0000   1.0000   1.0000
     1.0000   1.0000   1.0000   1.0000   1.0000   1.0000   1.0000   1.0000
     1.0000   1.0000   1.0000   1.0000   1.0000   1.0000   1.0000   1.0000
     1.0000   1.0000   1.0000   1.0000   1.0000   1.0000   1.0000   1.0000

          k = 0.0000 0.0000 0.3310 ( 66796 PWs)   bands (ev):

   -21.4684 -21.0405 -20.5340 -20.5314 -20.1085 -20.1039 -20.0225 -19.1187
   -19.1067 -19.0343 -18.2857 -18.2037 -18.1582 -18.1342 -17.8301 -17.8068
   -17.0461 -16.9006 -16.8520 -16.2927 -16.1914 -16.0032 -15.9395 -15.5699
   -15.5277 -15.1655 -14.8663 -14.7668 -14.4600 -14.2836 -13.9857 -13.9352
   -13.7793 -13.5770 -12.9964 -12.9414 -12.7898 -12.6014 -12.5223 -11.8703
   -11.7197 -11.4759 -11.4240 -11.1418 -11.0876 -10.8727 -10.7923 -10.3959
   -10.3211 -10.2512 -10.2047 -10.1382 -10.0362 -10.0019  -9.8403  -9.7630
    -9.7082  -9.4246  -9.3703  -9.1526  -8.9717  -8.9579  -8.8854  -8.7065
    -8.3797  -8.3792  -8.3205  -8.2482  -8.1974  -8.0202  -7.9907  -7.9903
    -7.8694  -7.8260  -7.7681  -7.6991  -7.5990  -7.4834  -7.3689  -6.6799
    -6.6261  -6.5711  -6.5529  -6.4144  -6.3325  -6.1030  -5.9557  -5.7802
    -5.7252  -5.7147  -5.5135  -5.3956  -5.3301  -5.2203  -5.1673  -5.1110
    -4.8030  -4.7588  -4.6488  -4.6125  -4.5675  -3.9271  -3.8119  -3.7909
    -3.5152  -3.3179  -3.2009  -2.9764  -2.5286  -2.2697  -2.1176  -1.7488

     occupation numbers 
     1.0000   1.0000   1.0000   1.0000   1.0000   1.0000   1.0000   1.0000
     1.0000   1.0000   1.0000   1.0000   1.0000   1.0000   1.0000   1.0000
     1.0000   1.0000   1.0000   1.0000   1.0000   1.0000   1.0000   1.0000
     1.0000   1.0000   1.0000   1.0000   1.0000   1.0000   1.0000   1.0000
     1.0000   1.0000   1.0000   1.0000   1.0000   1.0000   1.0000   1.0000
     1.0000   1.0000   1.0000   1.0000   1.0000   1.0000   1.0000   1.0000
     1.0000   1.0000   1.0000   1.0000   1.0000   1.0000   1.0000   1.0000
     1.0000   1.0000   1.0000   1.0000   1.0000   1.0000   1.0000   1.0000
     1.0000   1.0000   1.0000   1.0000   1.0000   1.0000   1.0000   1.0000
     1.0000   1.0000   1.0000   1.0000   1.0000   1.0000   1.0000   1.0000
     1.0000   1.0000   1.0000   1.0000   1.0000   1.0000   1.0000   1.0000
     1.0000   1.0000   1.0000   1.0000   1.0000   1.0000   1.0000   1.0000
     1.0000   1.0000   1.0000   1.0000   1.0000   1.0000   1.0000   1.0000
     1.0000   1.0000   1.0000   1.0000   1.0000   1.0000   1.0000   1.0000

          k = 0.0000 0.0000 0.3783 ( 66788 PWs)   bands (ev):

   -21.4533 -21.0802 -20.5199 -20.5166 -20.1470 -20.1420 -19.9283 -19.1535
   -19.0273 -19.0148 -18.2749 -18.2740 -18.2500 -18.1893 -17.8631 -17.8442
   -16.8873 -16.8162 -16.7643 -16.1635 -16.1063 -16.0469 -16.0357 -15.7285
   -15.5292 -15.1449 -14.9175 -14.9094 -14.6048 -14.3007 -13.8569 -13.7927
   -13.7135 -13.5128 -13.0458 -13.0336 -12.8313 -12.6871 -12.5515 -11.7638
   -11.6749 -11.4003 -11.3439 -11.1342 -10.9967 -10.7919 -10.7561 -10.4229
   -10.3134 -10.2771 -10.2296 -10.1702 -10.0559  -9.9828  -9.9191  -9.8406
    -9.8187  -9.4724  -9.4545  -9.1500  -8.9690  -8.9646  -8.9548  -8.6770
    -8.4790  -8.4142  -8.2784  -8.2627  -8.1439  -7.9428  -7.9207  -7.9039
    -7.8658  -7.8237  -7.7791  -7.7128  -7.5854  -7.3882  -7.3444  -6.7191
    -6.6408  -6.6048  -6.5461  -6.4532  -6.3497  -6.0424  -5.9470  -5.7780
    -5.7103  -5.6354  -5.5380  -5.4957  -5.4302  -5.2048  -5.0959  -5.0844
    -4.8394  -4.8038  -4.7296  -4.6143  -4.4479  -3.8575  -3.7368  -3.7076
    -3.3710  -3.3697  -3.3380  -3.0615  -2.5387  -2.3852  -2.0864  -1.7827

     occupation numbers 
     1.0000   1.0000   1.0000   1.0000   1.0000   1.0000   1.0000   1.0000
     1.0000   1.0000   1.0000   1.0000   1.0000   1.0000   1.0000   1.0000
     1.0000   1.0000   1.0000   1.0000   1.0000   1.0000   1.0000   1.0000
     1.0000   1.0000   1.0000   1.0000   1.0000   1.0000   1.0000   1.0000
     1.0000   1.0000   1.0000   1.0000   1.0000   1.0000   1.0000   1.0000
     1.0000   1.0000   1.0000   1.0000   1.0000   1.0000   1.0000   1.0000
     1.0000   1.0000   1.0000   1.0000   1.0000   1.0000   1.0000   1.0000
     1.0000   1.0000   1.0000   1.0000   1.0000   1.0000   1.0000   1.0000
     1.0000   1.0000   1.0000   1.0000   1.0000   1.0000   1.0000   1.0000
     1.0000   1.0000   1.0000   1.0000   1.0000   1.0000   1.0000   1.0000
     1.0000   1.0000   1.0000   1.0000   1.0000   1.0000   1.0000   1.0000
     1.0000   1.0000   1.0000   1.0000   1.0000   1.0000   1.0000   1.0000
     1.0000   1.0000   1.0000   1.0000   1.0000   1.0000   1.0000   1.0000
     1.0000   1.0000   1.0000   1.0000   1.0000   1.0000   1.0000   1.0000

          k = 0.0000 0.0000 0.4255 ( 66812 PWs)   bands (ev):

   -21.4388 -21.1130 -20.5068 -20.5027 -20.1790 -20.1733 -19.8319 -19.2685
   -18.9346 -18.9205 -18.3862 -18.3612 -18.2651 -18.1755 -17.8896 -17.8753
   -16.7381 -16.7207 -16.6747 -16.2054 -16.1514 -16.0471 -15.8912 -15.8789
   -15.5318 -15.1228 -15.0738 -14.9497 -14.7311 -14.3135 -13.7227 -13.6457
   -13.6393 -13.4510 -13.1432 -13.0834 -12.9746 -12.8497 -12.4061 -11.8213
   -11.4811 -11.3735 -11.1970 -11.1809 -10.8501 -10.7820 -10.6456 -10.5126
   -10.4908 -10.3339 -10.2347 -10.1865 -10.0743  -9.9714  -9.9457  -9.8693
    -9.7906  -9.5452  -9.5051  -9.1497  -9.0412  -8.9676  -8.9519  -8.6455
    -8.5988  -8.4545  -8.2712  -8.2200  -8.1025  -7.9655  -7.8619  -7.8304
    -7.8211  -7.7831  -7.7815  -7.6997  -7.5881  -7.4221  -7.2083  -6.7950
    -6.7172  -6.6439  -6.4879  -6.4597  -6.3346  -5.9788  -5.9314  -5.8381
    -5.7073  -5.5876  -5.5572  -5.5232  -5.4981  -5.1919  -5.0711  -5.0211
    -4.8698  -4.8475  -4.8106  -4.6612  -4.2866  -3.7886  -3.6768  -3.6274
    -3.4853  -3.4210  -3.2253  -3.1484  -2.5632  -2.4919  -2.0540  -1.8170

     occupation numbers 
     1.0000   1.0000   1.0000   1.0000   1.0000   1.0000   1.0000   1.0000
     1.0000   1.0000   1.0000   1.0000   1.0000   1.0000   1.0000   1.0000
     1.0000   1.0000   1.0000   1.0000   1.0000   1.0000   1.0000   1.0000
     1.0000   1.0000   1.0000   1.0000   1.0000   1.0000   1.0000   1.0000
     1.0000   1.0000   1.0000   1.0000   1.0000   1.0000   1.0000   1.0000
     1.0000   1.0000   1.0000   1.0000   1.0000   1.0000   1.0000   1.0000
     1.0000   1.0000   1.0000   1.0000   1.0000   1.0000   1.0000   1.0000
     1.0000   1.0000   1.0000   1.0000   1.0000   1.0000   1.0000   1.0000
     1.0000   1.0000   1.0000   1.0000   1.0000   1.0000   1.0000   1.0000
     1.0000   1.0000   1.0000   1.0000   1.0000   1.0000   1.0000   1.0000
     1.0000   1.0000   1.0000   1.0000   1.0000   1.0000   1.0000   1.0000
     1.0000   1.0000   1.0000   1.0000   1.0000   1.0000   1.0000   1.0000
     1.0000   1.0000   1.0000   1.0000   1.0000   1.0000   1.0000   1.0000
     1.0000   1.0000   1.0000   1.0000   1.0000   1.0000   1.0000   1.0000

          k = 0.0000 0.0000 0.4728 ( 66752 PWs)   bands (ev):

   -21.4269 -21.1370 -20.4961 -20.4913 -20.2023 -20.1959 -19.7354 -19.3767
   -18.8435 -18.8250 -18.4934 -18.4642 -18.2573 -18.1641 -17.9082 -17.8979
   -16.6514 -16.5886 -16.5620 -16.2960 -16.2502 -16.0544 -15.9529 -15.7213
   -15.5353 -15.2329 -15.0999 -14.9844 -14.8278 -14.3220 -13.5845 -13.5595
   -13.4959 -13.4022 -13.2235 -13.1391 -13.1231 -13.0094 -12.2641 -11.8940
   -11.3429 -11.2920 -11.2260 -11.0408 -10.7602 -10.7051 -10.6772 -10.5990
   -10.5795 -10.4421 -10.2249 -10.1974 -10.1597 -10.0995  -9.8713  -9.7936
    -9.6938  -9.6198  -9.5354  -9.2395  -9.0195  -8.9662  -8.9499  -8.7191
    -8.6114  -8.4956  -8.2753  -8.1615  -8.0746  -8.0069  -7.8249  -7.8183
    -7.8034  -7.7476  -7.6890  -7.6747  -7.6039  -7.4684  -7.0787  -6.8484
    -6.7755  -6.7206  -6.4986  -6.4329  -6.2595  -5.9614  -5.9023  -5.8622
    -5.7062  -5.6650  -5.6192  -5.5607  -5.3695  -5.1844  -5.0516  -4.9936
    -4.8890  -4.8838  -4.8620  -4.7112  -4.1261  -3.7233  -3.6343  -3.6324
    -3.5687  -3.4530  -3.2352  -3.0831  -2.6598  -2.5284  -2.0237  -1.8482

     occupation numbers 
     1.0000   1.0000   1.0000   1.0000   1.0000   1.0000   1.0000   1.0000
     1.0000   1.0000   1.0000   1.0000   1.0000   1.0000   1.0000   1.0000
     1.0000   1.0000   1.0000   1.0000   1.0000   1.0000   1.0000   1.0000
     1.0000   1.0000   1.0000   1.0000   1.0000   1.0000   1.0000   1.0000
     1.0000   1.0000   1.0000   1.0000   1.0000   1.0000   1.0000   1.0000
     1.0000   1.0000   1.0000   1.0000   1.0000   1.0000   1.0000   1.0000
     1.0000   1.0000   1.0000   1.0000   1.0000   1.0000   1.0000   1.0000
     1.0000   1.0000   1.0000   1.0000   1.0000   1.0000   1.0000   1.0000
     1.0000   1.0000   1.0000   1.0000   1.0000   1.0000   1.0000   1.0000
     1.0000   1.0000   1.0000   1.0000   1.0000   1.0000   1.0000   1.0000
     1.0000   1.0000   1.0000   1.0000   1.0000   1.0000   1.0000   1.0000
     1.0000   1.0000   1.0000   1.0000   1.0000   1.0000   1.0000   1.0000
     1.0000   1.0000   1.0000   1.0000   1.0000   1.0000   1.0000   1.0000
     1.0000   1.0000   1.0000   1.0000   1.0000   1.0000   1.0000   1.0000

          k = 0.0000 0.0000 0.5201 ( 66756 PWs)   bands (ev):

   -21.4200 -21.1500 -20.4901 -20.4849 -20.2149 -20.2081 -19.6517 -19.4668
   -18.7699 -18.7376 -18.5871 -18.5439 -18.2531 -18.1576 -17.9182 -17.9104
   -16.5864 -16.5126 -16.4152 -16.3565 -16.3317 -16.2114 -15.8979 -15.5719
   -15.5325 -15.3893 -15.0836 -15.0081 -14.8821 -14.3262 -13.4803 -13.4522
   -13.4075 -13.3529 -13.2597 -13.2482 -13.1925 -13.1585 -12.1472 -11.9740
   -11.3087 -11.2681 -11.1245 -10.8867 -10.8322 -10.7252 -10.7139 -10.6686
   -10.5512 -10.4185 -10.3203 -10.2228 -10.1708 -10.1536  -9.8128  -9.7666
    -9.7063  -9.5526  -9.5290  -9.3773  -8.9655  -8.9491  -8.9424  -8.8309
    -8.5755  -8.5357  -8.2772  -8.1066  -8.0603  -8.0547  -7.8160  -7.8071
    -7.8044  -7.6981  -7.6566  -7.6302  -7.6071  -7.5264  -6.9654  -6.8761
    -6.8096  -6.8084  -6.5019  -6.4305  -6.1713  -6.0265  -5.8582  -5.8248
    -5.7225  -5.7054  -5.6892  -5.5663  -5.2597  -5.1953  -5.0393  -5.0372
    -4.8984  -4.8916  -4.8540  -4.7572  -3.9752  -3.7846  -3.6583  -3.6124
    -3.5811  -3.4157  -3.3163  -2.9507  -2.7818  -2.5344  -2.0030  -1.8694

     occupation numbers 
     1.0000   1.0000   1.0000   1.0000   1.0000   1.0000   1.0000   1.0000
     1.0000   1.0000   1.0000   1.0000   1.0000   1.0000   1.0000   1.0000
     1.0000   1.0000   1.0000   1.0000   1.0000   1.0000   1.0000   1.0000
     1.0000   1.0000   1.0000   1.0000   1.0000   1.0000   1.0000   1.0000
     1.0000   1.0000   1.0000   1.0000   1.0000   1.0000   1.0000   1.0000
     1.0000   1.0000   1.0000   1.0000   1.0000   1.0000   1.0000   1.0000
     1.0000   1.0000   1.0000   1.0000   1.0000   1.0000   1.0000   1.0000
     1.0000   1.0000   1.0000   1.0000   1.0000   1.0000   1.0000   1.0000
     1.0000   1.0000   1.0000   1.0000   1.0000   1.0000   1.0000   1.0000
     1.0000   1.0000   1.0000   1.0000   1.0000   1.0000   1.0000   1.0000
     1.0000   1.0000   1.0000   1.0000   1.0000   1.0000   1.0000   1.0000
     1.0000   1.0000   1.0000   1.0000   1.0000   1.0000   1.0000   1.0000
     1.0000   1.0000   1.0000   1.0000   1.0000   1.0000   1.0000   1.0000
     1.0000   1.0000   1.0000   1.0000   1.0000   1.0000   1.0000   1.0000

     highest occupied level (ev):    -1.6524

!    total energy              =    -635.11531787 Ry
     Harris-Foulkes estimate   =    -635.11531825 Ry
     estimated scf accuracy    <       0.00000008 Ry

     The total energy is the sum of the following terms:

     one-electron contribution =   -3876.66706601 Ry
     hartree contribution      =    1978.90342007 Ry
     xc contribution           =    -194.58642372 Ry
     ewald contribution        =    1457.23475180 Ry

     convergence has been achieved in  11 iterations

     Writing output data file cnt42.save
 
     init_run     :      9.55s CPU      9.91s WALL (       1 calls)
     electrons    :    196.75s CPU    205.61s WALL (       1 calls)

     Called by init_run:
     wfcinit      :      9.30s CPU      9.63s WALL (       1 calls)
     wfcinit:atom :      0.08s CPU      0.17s WALL (      12 calls)
     wfcinit:wfcr :      8.79s CPU      8.96s WALL (      12 calls)
     potinit      :      0.04s CPU      0.04s WALL (       1 calls)

     Called by electrons:
     c_bands      :    177.24s CPU    185.68s WALL (      11 calls)
     sum_band     :     19.30s CPU     19.68s WALL (      11 calls)
     v_of_rho     :      0.07s CPU      0.08s WALL (      12 calls)
     v_h          :      0.02s CPU      0.03s WALL (      12 calls)
     v_xc         :      0.05s CPU      0.05s WALL (      12 calls)
     mix_rho      :      0.10s CPU      0.12s WALL (      11 calls)

     Called by c_bands:
     init_us_2    :      0.38s CPU      0.44s WALL (     276 calls)
     cegterg      :    175.36s CPU    183.74s WALL (     132 calls)

     Called by sum_band:

     Called by *egterg:
     h_psi        :    115.71s CPU    118.06s WALL (     684 calls)
     g_psi        :      0.52s CPU      0.53s WALL (     540 calls)
     cdiaghg      :     17.26s CPU     18.07s WALL (     672 calls)
     cegterg:over :     20.63s CPU     20.90s WALL (     540 calls)
     cegterg:upda :     15.94s CPU     16.81s WALL (     540 calls)
     cegterg:last :      5.44s CPU      5.57s WALL (     132 calls)
     cdiaghg:chol :      1.44s CPU      1.41s WALL (     672 calls)
     cdiaghg:inve :      0.06s CPU      0.26s WALL (     672 calls)
     cdiaghg:para :      3.65s CPU      3.94s WALL (    1344 calls)

     Called by h_psi:
     h_psi:pot    :    114.33s CPU    116.66s WALL (     684 calls)
     h_psi:calbec :      3.85s CPU      3.80s WALL (     684 calls)
     vloc_psi     :    107.95s CPU    109.90s WALL (     684 calls)
     add_vuspsi   :      2.53s CPU      2.95s WALL (     684 calls)

     General routines
     calbec       :      3.85s CPU      3.80s WALL (     684 calls)
     fft          :      0.08s CPU      0.09s WALL (      47 calls)
     fftw         :    120.85s CPU    118.50s WALL (  105196 calls)
 
     Parallel routines
     fft_scatt_xy :      4.31s CPU      8.14s WALL (  105243 calls)
     fft_scatt_yz :     80.70s CPU     49.39s WALL (  105243 calls)
 
     PWSCF        :  3m26.97s CPU     3m40.87s WALL

 
   This run was terminated on:  14:51:42  24Apr2018            

=------------------------------------------------------------------------------=
   JOB DONE.
=------------------------------------------------------------------------------=
