
     Program PWSCF v.6.2 (svn rev. 13949:13950) starts on 24Apr2018 at 14:51:42 

     This program is part of the open-source Quantum ESPRESSO suite
     for quantum simulation of materials; please cite
         "P. Giannozzi et al., J. Phys.:Condens. Matter 21 395502 (2009);
         "P. Giannozzi et al., J. Phys.:Condens. Matter 29 465901 (2017);
          URL http://www.quantum-espresso.org", 
     in publications or presentations arising from this work. More details at
     http://www.quantum-espresso.org/quote

     Parallel version (MPI), running on    16 processors

     MPI processes distributed on     1 nodes
     R & G space division:  proc/nbgrp/npool/nimage =      16
     Reading input from /home/Daria.Satco/QE_calc/cnt4x2/cnt42.nscf.in

     Current dimensions of program PWSCF are:
     Max number of different atomic species (ntypx) = 10
     Max number of k-points (npk) =  40000
     Max angular momentum in pseudopotentials (lmaxx) =  3

     Atomic positions and unit cell read from directory:
     ./tmp/cnt42.save/
 

     Subspace diagonalization in iterative solution of the eigenvalue problem:
     one sub-group per band group will be used
     scalapack distributed-memory algorithm (size of sub-group:  2*  2 procs)

 
     Parallelization info
     --------------------
     sticks:   dense  smooth     PW     G-vecs:    dense   smooth      PW
     Min         525     525    142                33403    33403    4716
     Max         526     526    143                33408    33408    4719
     Sum        8413    8413   2285               534491   534491   75493
 


     bravais-lattice index     =            6
     lattice parameter (alat)  =      23.0000  a.u.
     unit-cell volume          =   11188.2520 (a.u.)^3
     number of atoms/cell      =           56
     number of atomic types    =            1
     number of electrons       =       224.00
     number of Kohn-Sham states=          130
     kinetic-energy cutoff     =      50.0000  Ry
     charge density cutoff     =     200.0000  Ry
     Exchange-correlation      =  SLA  PZ   NOGX NOGC ( 1  1  0  0 0 0)

     celldm(1)=  23.000000  celldm(2)=   1.000000  celldm(3)=   0.919557
     celldm(4)=   0.000000  celldm(5)=   0.000000  celldm(6)=   0.000000

     crystal axes: (cart. coord. in units of alat)
               a(1) = (   1.000000   0.000000   0.000000 )  
               a(2) = (   0.000000   1.000000   0.000000 )  
               a(3) = (   0.000000   0.000000   0.919557 )  

     reciprocal axes: (cart. coord. in units 2 pi/alat)
               b(1) = (  1.000000  0.000000  0.000000 )  
               b(2) = (  0.000000  1.000000  0.000000 )  
               b(3) = (  0.000000  0.000000  1.087480 )  


     PseudoPot. # 1 for C  read from file:
     ./C.pz-vbc.UPF
     MD5 check sum: ab53dd623bfeb79c5a7b057bc96eae20
     Pseudo is Norm-conserving, Zval =  4.0
     Generated by new atomic code, or converted to UPF format
     Using radial grid of  269 points,  1 beta functions with: 
                l(1) =   0

     atomic species   valence    mass     pseudopotential
        C              4.00     1.00000     C ( 1.00)

     No symmetry found


                                    s                        frac. trans.

      isym =  1     identity                                     

 cryst.   s( 1) = (     1          0          0      )
                  (     0          1          0      )
                  (     0          0          1      )

 cart.    s( 1) = (  1.0000000  0.0000000  0.0000000 )
                  (  0.0000000  1.0000000  0.0000000 )
                  (  0.0000000  0.0000000  1.0000000 )


     point group C_1 (1)    
     there are  1 classes
     the character table:

       E    
A      1.00

     the symmetry operations in each class and the name of the first element:

     E        1
          identity                                               

   Cartesian axes

     site n.     atom                  positions (alat units)
         1           C   tau(   1) = (   0.1725202   0.0000000  -0.4642322  )
         2           C   tau(   2) = (   0.1725202  -0.0001146  -0.1549764  )
         3           C   tau(   3) = (   0.1682994   0.0379280  -0.2652761  )
         4           C   tau(   4) = (   0.1074076   0.1350068  -0.2876138  )
         5           C   tau(   5) = (   0.0749958   0.1553669  -0.3979135  )
         6           C   tau(   6) = (  -0.0388924   0.1680792  -0.4202512  )
         7           C   tau(   7) = (   0.1683246   0.0378162   0.0439797  )
         8           C   tau(   8) = (   0.1558435   0.0740002  -0.0663200  )
         9           C   tau(   9) = (   0.0750989   0.1553170  -0.0886577  )
        10           C   tau(  10) = (   0.0390040   0.1680533  -0.1989574  )
        11           C   tau(  11) = (  -0.0748926   0.1554167  -0.2212951  )
        12           C   tau(  12) = (  -0.1073179   0.1350782  -0.3315948  )
        13           C   tau(  13) = (  -0.1682742   0.0380399  -0.3539325  )
        14           C   tau(  14) = (  -0.1725202   0.0000000  -0.4642322  )
        15           C   tau(  15) = (   0.1558926   0.0738967   0.2429357  )
        16           C   tau(  16) = (   0.1357620   0.1064515   0.1326361  )
        17           C   tau(  17) = (   0.0391157   0.1680274   0.1102984  )
        18           C   tau(  18) = (   0.0011038   0.1725167  -0.0000013  )
        19           C   tau(  19) = (  -0.1072281   0.1351494  -0.0223390  )
        20           C   tau(  20) = (  -0.1343888   0.1081799  -0.1326387  )
        21           C   tau(  21) = (  -0.1725202   0.0001146  -0.1549764  )
        22           C   tau(  22) = (  -0.1682994  -0.0379280  -0.2652761  )
        23           C   tau(  23) = (  -0.1074076  -0.1350068  -0.2876138  )
        24           C   tau(  24) = (  -0.0749958  -0.1553669  -0.3979135  )
        25           C   tau(  25) = (   0.0388924  -0.1680792  -0.4202512  )
        26           C   tau(  26) = (   0.1358327   0.1063613   0.4418918  )
        27           C   tau(  27) = (   0.1090374   0.1336939   0.3315921  )
        28           C   tau(  28) = (   0.0012184   0.1725160   0.3092544  )
        29           C   tau(  29) = (  -0.0368505   0.1685387   0.1989547  )
        30           C   tau(  30) = (  -0.1343169   0.1082691   0.1766171  )
        31           C   tau(  31) = (  -0.1548839   0.0759883   0.0663174  )
        32           C   tau(  32) = (  -0.1683246  -0.0378162   0.0439797  )
        33           C   tau(  33) = (  -0.1558435  -0.0740002  -0.0663200  )
        34           C   tau(  34) = (  -0.0750989  -0.1553170  -0.0886577  )
        35           C   tau(  35) = (  -0.0390040  -0.1680533  -0.1989574  )
        36           C   tau(  36) = (   0.0748926  -0.1554167  -0.2212951  )
        37           C   tau(  37) = (   0.1073179  -0.1350782  -0.3315948  )
        38           C   tau(  38) = (   0.1682742  -0.0380399  -0.3539325  )
        39           C   tau(  39) = (  -0.0730017   0.1563138   0.3979108  )
        40           C   tau(  40) = (  -0.1548334   0.0760911   0.3755731  )
        41           C   tau(  41) = (  -0.1678004   0.0400784   0.2652734  )
        42           C   tau(  42) = (  -0.1558926  -0.0738967   0.2429357  )
        43           C   tau(  43) = (  -0.1357620  -0.1064515   0.1326361  )
        44           C   tau(  44) = (  -0.0391157  -0.1680274   0.1102984  )
        45           C   tau(  45) = (  -0.0011038  -0.1725167  -0.0000013  )
        46           C   tau(  46) = (   0.1072281  -0.1351494  -0.0223390  )
        47           C   tau(  47) = (   0.1343888  -0.1081799  -0.1326387  )
        48           C   tau(  48) = (  -0.1358327  -0.1063613   0.4418918  )
        49           C   tau(  49) = (  -0.1090374  -0.1336939   0.3315921  )
        50           C   tau(  50) = (  -0.0012184  -0.1725160   0.3092544  )
        51           C   tau(  51) = (   0.0368505  -0.1685387   0.1989547  )
        52           C   tau(  52) = (   0.1343169  -0.1082691   0.1766171  )
        53           C   tau(  53) = (   0.1548839  -0.0759883   0.0663174  )
        54           C   tau(  54) = (   0.0730017  -0.1563138   0.3979108  )
        55           C   tau(  55) = (   0.1548334  -0.0760911   0.3755731  )
        56           C   tau(  56) = (   0.1678004  -0.0400784   0.2652734  )

   Crystallographic axes

     site n.     atom                  positions (cryst. coord.)
         1           C   tau(   1) = (  0.1725202  0.0000000 -0.5048432  )
         2           C   tau(   2) = (  0.1725202 -0.0001146 -0.1685337  )
         3           C   tau(   3) = (  0.1682994  0.0379280 -0.2884824  )
         4           C   tau(   4) = (  0.1074076  0.1350068 -0.3127742  )
         5           C   tau(   5) = (  0.0749958  0.1553669 -0.4327229  )
         6           C   tau(   6) = ( -0.0388924  0.1680792 -0.4570147  )
         7           C   tau(   7) = (  0.1683246  0.0378162  0.0478270  )
         8           C   tau(   8) = (  0.1558435  0.0740002 -0.0721217  )
         9           C   tau(   9) = (  0.0750989  0.1553170 -0.0964135  )
        10           C   tau(  10) = (  0.0390040  0.1680533 -0.2163621  )
        11           C   tau(  11) = ( -0.0748926  0.1554167 -0.2406539  )
        12           C   tau(  12) = ( -0.1073179  0.1350782 -0.3606027  )
        13           C   tau(  13) = ( -0.1682742  0.0380399 -0.3848945  )
        14           C   tau(  14) = ( -0.1725202  0.0000000 -0.5048432  )
        15           C   tau(  15) = (  0.1558926  0.0738967  0.2641877  )
        16           C   tau(  16) = (  0.1357620  0.1064515  0.1442391  )
        17           C   tau(  17) = (  0.0391157  0.1680274  0.1199473  )
        18           C   tau(  18) = (  0.0011038  0.1725167 -0.0000014  )
        19           C   tau(  19) = ( -0.1072281  0.1351494 -0.0242932  )
        20           C   tau(  20) = ( -0.1343888  0.1081799 -0.1442420  )
        21           C   tau(  21) = ( -0.1725202  0.0001146 -0.1685337  )
        22           C   tau(  22) = ( -0.1682994 -0.0379280 -0.2884824  )
        23           C   tau(  23) = ( -0.1074076 -0.1350068 -0.3127742  )
        24           C   tau(  24) = ( -0.0749958 -0.1553669 -0.4327229  )
        25           C   tau(  25) = (  0.0388924 -0.1680792 -0.4570147  )
        26           C   tau(  26) = (  0.1358327  0.1063613  0.4805485  )
        27           C   tau(  27) = (  0.1090374  0.1336939  0.3605998  )
        28           C   tau(  28) = (  0.0012184  0.1725160  0.3363080  )
        29           C   tau(  29) = ( -0.0368505  0.1685387  0.2163593  )
        30           C   tau(  30) = ( -0.1343169  0.1082691  0.1920675  )
        31           C   tau(  31) = ( -0.1548839  0.0759883  0.0721188  )
        32           C   tau(  32) = ( -0.1683246 -0.0378162  0.0478270  )
        33           C   tau(  33) = ( -0.1558435 -0.0740002 -0.0721217  )
        34           C   tau(  34) = ( -0.0750989 -0.1553170 -0.0964135  )
        35           C   tau(  35) = ( -0.0390040 -0.1680533 -0.2163621  )
        36           C   tau(  36) = (  0.0748926 -0.1554167 -0.2406539  )
        37           C   tau(  37) = (  0.1073179 -0.1350782 -0.3606027  )
        38           C   tau(  38) = (  0.1682742 -0.0380399 -0.3848945  )
        39           C   tau(  39) = ( -0.0730017  0.1563138  0.4327201  )
        40           C   tau(  40) = ( -0.1548334  0.0760911  0.4084283  )
        41           C   tau(  41) = ( -0.1678004  0.0400784  0.2884795  )
        42           C   tau(  42) = ( -0.1558926 -0.0738967  0.2641877  )
        43           C   tau(  43) = ( -0.1357620 -0.1064515  0.1442391  )
        44           C   tau(  44) = ( -0.0391157 -0.1680274  0.1199473  )
        45           C   tau(  45) = ( -0.0011038 -0.1725167 -0.0000014  )
        46           C   tau(  46) = (  0.1072281 -0.1351494 -0.0242932  )
        47           C   tau(  47) = (  0.1343888 -0.1081799 -0.1442420  )
        48           C   tau(  48) = ( -0.1358327 -0.1063613  0.4805485  )
        49           C   tau(  49) = ( -0.1090374 -0.1336939  0.3605998  )
        50           C   tau(  50) = ( -0.0012184 -0.1725160  0.3363080  )
        51           C   tau(  51) = (  0.0368505 -0.1685387  0.2163593  )
        52           C   tau(  52) = (  0.1343169 -0.1082691  0.1920675  )
        53           C   tau(  53) = (  0.1548839 -0.0759883  0.0721188  )
        54           C   tau(  54) = (  0.0730017 -0.1563138  0.4327201  )
        55           C   tau(  55) = (  0.1548334 -0.0760911  0.4084283  )
        56           C   tau(  56) = (  0.1678004 -0.0400784  0.2884795  )

     number of k points=   100
                       cart. coord. in units 2pi/alat
        k(    1) = (   0.0000000   0.0000000   0.0000000), wk =   0.0200000
        k(    2) = (   0.0000000   0.0000000   0.0108748), wk =   0.0200000
        k(    3) = (   0.0000000   0.0000000   0.0217496), wk =   0.0200000
        k(    4) = (   0.0000000   0.0000000   0.0326244), wk =   0.0200000
        k(    5) = (   0.0000000   0.0000000   0.0434992), wk =   0.0200000
        k(    6) = (   0.0000000   0.0000000   0.0543740), wk =   0.0200000
        k(    7) = (   0.0000000   0.0000000   0.0652488), wk =   0.0200000
        k(    8) = (   0.0000000   0.0000000   0.0761236), wk =   0.0200000
        k(    9) = (   0.0000000   0.0000000   0.0869984), wk =   0.0200000
        k(   10) = (   0.0000000   0.0000000   0.0978732), wk =   0.0200000
        k(   11) = (   0.0000000   0.0000000   0.1087480), wk =   0.0200000
        k(   12) = (   0.0000000   0.0000000   0.1196228), wk =   0.0200000
        k(   13) = (   0.0000000   0.0000000   0.1304976), wk =   0.0200000
        k(   14) = (   0.0000000   0.0000000   0.1413724), wk =   0.0200000
        k(   15) = (   0.0000000   0.0000000   0.1522472), wk =   0.0200000
        k(   16) = (   0.0000000   0.0000000   0.1631220), wk =   0.0200000
        k(   17) = (   0.0000000   0.0000000   0.1739968), wk =   0.0200000
        k(   18) = (   0.0000000   0.0000000   0.1848716), wk =   0.0200000
        k(   19) = (   0.0000000   0.0000000   0.1957464), wk =   0.0200000
        k(   20) = (   0.0000000   0.0000000   0.2066212), wk =   0.0200000
        k(   21) = (   0.0000000   0.0000000   0.2174960), wk =   0.0200000
        k(   22) = (   0.0000000   0.0000000   0.2283708), wk =   0.0200000
        k(   23) = (   0.0000000   0.0000000   0.2392456), wk =   0.0200000
        k(   24) = (   0.0000000   0.0000000   0.2501204), wk =   0.0200000
        k(   25) = (   0.0000000   0.0000000   0.2609952), wk =   0.0200000
        k(   26) = (   0.0000000   0.0000000   0.2718700), wk =   0.0200000
        k(   27) = (   0.0000000   0.0000000   0.2827448), wk =   0.0200000
        k(   28) = (   0.0000000   0.0000000   0.2936196), wk =   0.0200000
        k(   29) = (   0.0000000   0.0000000   0.3044944), wk =   0.0200000
        k(   30) = (   0.0000000   0.0000000   0.3153692), wk =   0.0200000
        k(   31) = (   0.0000000   0.0000000   0.3262440), wk =   0.0200000
        k(   32) = (   0.0000000   0.0000000   0.3371188), wk =   0.0200000
        k(   33) = (   0.0000000   0.0000000   0.3479936), wk =   0.0200000
        k(   34) = (   0.0000000   0.0000000   0.3588684), wk =   0.0200000
        k(   35) = (   0.0000000   0.0000000   0.3697432), wk =   0.0200000
        k(   36) = (   0.0000000   0.0000000   0.3806180), wk =   0.0200000
        k(   37) = (   0.0000000   0.0000000   0.3914928), wk =   0.0200000
        k(   38) = (   0.0000000   0.0000000   0.4023676), wk =   0.0200000
        k(   39) = (   0.0000000   0.0000000   0.4132424), wk =   0.0200000
        k(   40) = (   0.0000000   0.0000000   0.4241172), wk =   0.0200000
        k(   41) = (   0.0000000   0.0000000   0.4349920), wk =   0.0200000
        k(   42) = (   0.0000000   0.0000000   0.4458668), wk =   0.0200000
        k(   43) = (   0.0000000   0.0000000   0.4567416), wk =   0.0200000
        k(   44) = (   0.0000000   0.0000000   0.4676164), wk =   0.0200000
        k(   45) = (   0.0000000   0.0000000   0.4784912), wk =   0.0200000
        k(   46) = (   0.0000000   0.0000000   0.4893660), wk =   0.0200000
        k(   47) = (   0.0000000   0.0000000   0.5002408), wk =   0.0200000
        k(   48) = (   0.0000000   0.0000000   0.5111156), wk =   0.0200000
        k(   49) = (   0.0000000   0.0000000   0.5219904), wk =   0.0200000
        k(   50) = (   0.0000000   0.0000000   0.5328652), wk =   0.0200000
        k(   51) = (   0.0000000   0.0000000   0.5437400), wk =   0.0200000
        k(   52) = (   0.0000000   0.0000000   0.5546148), wk =   0.0200000
        k(   53) = (   0.0000000   0.0000000   0.5654896), wk =   0.0200000
        k(   54) = (   0.0000000   0.0000000   0.5763644), wk =   0.0200000
        k(   55) = (   0.0000000   0.0000000   0.5872392), wk =   0.0200000
        k(   56) = (   0.0000000   0.0000000   0.5981140), wk =   0.0200000
        k(   57) = (   0.0000000   0.0000000   0.6089888), wk =   0.0200000
        k(   58) = (   0.0000000   0.0000000   0.6198636), wk =   0.0200000
        k(   59) = (   0.0000000   0.0000000   0.6307384), wk =   0.0200000
        k(   60) = (   0.0000000   0.0000000   0.6416132), wk =   0.0200000
        k(   61) = (   0.0000000   0.0000000   0.6524880), wk =   0.0200000
        k(   62) = (   0.0000000   0.0000000   0.6633628), wk =   0.0200000
        k(   63) = (   0.0000000   0.0000000   0.6742376), wk =   0.0200000
        k(   64) = (   0.0000000   0.0000000   0.6851124), wk =   0.0200000
        k(   65) = (   0.0000000   0.0000000   0.6959872), wk =   0.0200000
        k(   66) = (   0.0000000   0.0000000   0.7068620), wk =   0.0200000
        k(   67) = (   0.0000000   0.0000000   0.7177368), wk =   0.0200000
        k(   68) = (   0.0000000   0.0000000   0.7286116), wk =   0.0200000
        k(   69) = (   0.0000000   0.0000000   0.7394864), wk =   0.0200000
        k(   70) = (   0.0000000   0.0000000   0.7503612), wk =   0.0200000
        k(   71) = (   0.0000000   0.0000000   0.7612360), wk =   0.0200000
        k(   72) = (   0.0000000   0.0000000   0.7721108), wk =   0.0200000
        k(   73) = (   0.0000000   0.0000000   0.7829856), wk =   0.0200000
        k(   74) = (   0.0000000   0.0000000   0.7938604), wk =   0.0200000
        k(   75) = (   0.0000000   0.0000000   0.8047352), wk =   0.0200000
        k(   76) = (   0.0000000   0.0000000   0.8156100), wk =   0.0200000
        k(   77) = (   0.0000000   0.0000000   0.8264848), wk =   0.0200000
        k(   78) = (   0.0000000   0.0000000   0.8373596), wk =   0.0200000
        k(   79) = (   0.0000000   0.0000000   0.8482344), wk =   0.0200000
        k(   80) = (   0.0000000   0.0000000   0.8591092), wk =   0.0200000
        k(   81) = (   0.0000000   0.0000000   0.8699840), wk =   0.0200000
        k(   82) = (   0.0000000   0.0000000   0.8808588), wk =   0.0200000
        k(   83) = (   0.0000000   0.0000000   0.8917336), wk =   0.0200000
        k(   84) = (   0.0000000   0.0000000   0.9026084), wk =   0.0200000
        k(   85) = (   0.0000000   0.0000000   0.9134832), wk =   0.0200000
        k(   86) = (   0.0000000   0.0000000   0.9243580), wk =   0.0200000
        k(   87) = (   0.0000000   0.0000000   0.9352328), wk =   0.0200000
        k(   88) = (   0.0000000   0.0000000   0.9461076), wk =   0.0200000
        k(   89) = (   0.0000000   0.0000000   0.9569824), wk =   0.0200000
        k(   90) = (   0.0000000   0.0000000   0.9678572), wk =   0.0200000
        k(   91) = (   0.0000000   0.0000000   0.9787320), wk =   0.0200000
        k(   92) = (   0.0000000   0.0000000   0.9896068), wk =   0.0200000
        k(   93) = (   0.0000000   0.0000000   1.0004816), wk =   0.0200000
        k(   94) = (   0.0000000   0.0000000   1.0113564), wk =   0.0200000
        k(   95) = (   0.0000000   0.0000000   1.0222312), wk =   0.0200000
        k(   96) = (   0.0000000   0.0000000   1.0331060), wk =   0.0200000
        k(   97) = (   0.0000000   0.0000000   1.0439808), wk =   0.0200000
        k(   98) = (   0.0000000   0.0000000   1.0548556), wk =   0.0200000
        k(   99) = (   0.0000000   0.0000000   1.0657304), wk =   0.0200000
        k(  100) = (   0.0000000   0.0000000   1.0766052), wk =   0.0200000

                       cryst. coord.
        k(    1) = (   0.0000000   0.0000000   0.0000000), wk =   0.0200000
        k(    2) = (   0.0000000   0.0000000   0.0100000), wk =   0.0200000
        k(    3) = (   0.0000000   0.0000000   0.0200000), wk =   0.0200000
        k(    4) = (   0.0000000   0.0000000   0.0300000), wk =   0.0200000
        k(    5) = (   0.0000000   0.0000000   0.0400000), wk =   0.0200000
        k(    6) = (   0.0000000   0.0000000   0.0500000), wk =   0.0200000
        k(    7) = (   0.0000000   0.0000000   0.0600000), wk =   0.0200000
        k(    8) = (   0.0000000   0.0000000   0.0700000), wk =   0.0200000
        k(    9) = (   0.0000000   0.0000000   0.0800000), wk =   0.0200000
        k(   10) = (   0.0000000   0.0000000   0.0900000), wk =   0.0200000
        k(   11) = (   0.0000000   0.0000000   0.1000000), wk =   0.0200000
        k(   12) = (   0.0000000   0.0000000   0.1100000), wk =   0.0200000
        k(   13) = (   0.0000000   0.0000000   0.1200000), wk =   0.0200000
        k(   14) = (   0.0000000   0.0000000   0.1300000), wk =   0.0200000
        k(   15) = (   0.0000000   0.0000000   0.1400000), wk =   0.0200000
        k(   16) = (   0.0000000   0.0000000   0.1500000), wk =   0.0200000
        k(   17) = (   0.0000000   0.0000000   0.1600000), wk =   0.0200000
        k(   18) = (   0.0000000   0.0000000   0.1700000), wk =   0.0200000
        k(   19) = (   0.0000000   0.0000000   0.1800000), wk =   0.0200000
        k(   20) = (   0.0000000   0.0000000   0.1900000), wk =   0.0200000
        k(   21) = (   0.0000000   0.0000000   0.2000000), wk =   0.0200000
        k(   22) = (   0.0000000   0.0000000   0.2100000), wk =   0.0200000
        k(   23) = (   0.0000000   0.0000000   0.2200000), wk =   0.0200000
        k(   24) = (   0.0000000   0.0000000   0.2300000), wk =   0.0200000
        k(   25) = (   0.0000000   0.0000000   0.2400000), wk =   0.0200000
        k(   26) = (   0.0000000   0.0000000   0.2500000), wk =   0.0200000
        k(   27) = (   0.0000000   0.0000000   0.2600000), wk =   0.0200000
        k(   28) = (   0.0000000   0.0000000   0.2700000), wk =   0.0200000
        k(   29) = (   0.0000000   0.0000000   0.2800000), wk =   0.0200000
        k(   30) = (   0.0000000   0.0000000   0.2900000), wk =   0.0200000
        k(   31) = (   0.0000000   0.0000000   0.3000000), wk =   0.0200000
        k(   32) = (   0.0000000   0.0000000   0.3100000), wk =   0.0200000
        k(   33) = (   0.0000000   0.0000000   0.3200000), wk =   0.0200000
        k(   34) = (   0.0000000   0.0000000   0.3300000), wk =   0.0200000
        k(   35) = (   0.0000000   0.0000000   0.3400000), wk =   0.0200000
        k(   36) = (   0.0000000   0.0000000   0.3500000), wk =   0.0200000
        k(   37) = (   0.0000000   0.0000000   0.3600000), wk =   0.0200000
        k(   38) = (   0.0000000   0.0000000   0.3700000), wk =   0.0200000
        k(   39) = (   0.0000000   0.0000000   0.3800000), wk =   0.0200000
        k(   40) = (   0.0000000   0.0000000   0.3900000), wk =   0.0200000
        k(   41) = (   0.0000000   0.0000000   0.4000000), wk =   0.0200000
        k(   42) = (   0.0000000   0.0000000   0.4100000), wk =   0.0200000
        k(   43) = (   0.0000000   0.0000000   0.4200000), wk =   0.0200000
        k(   44) = (   0.0000000   0.0000000   0.4300000), wk =   0.0200000
        k(   45) = (   0.0000000   0.0000000   0.4400000), wk =   0.0200000
        k(   46) = (   0.0000000   0.0000000   0.4500000), wk =   0.0200000
        k(   47) = (   0.0000000   0.0000000   0.4600000), wk =   0.0200000
        k(   48) = (   0.0000000   0.0000000   0.4700000), wk =   0.0200000
        k(   49) = (   0.0000000   0.0000000   0.4800000), wk =   0.0200000
        k(   50) = (   0.0000000   0.0000000   0.4900000), wk =   0.0200000
        k(   51) = (   0.0000000   0.0000000   0.5000000), wk =   0.0200000
        k(   52) = (   0.0000000   0.0000000   0.5100000), wk =   0.0200000
        k(   53) = (   0.0000000   0.0000000   0.5200000), wk =   0.0200000
        k(   54) = (   0.0000000   0.0000000   0.5300000), wk =   0.0200000
        k(   55) = (   0.0000000   0.0000000   0.5400000), wk =   0.0200000
        k(   56) = (   0.0000000   0.0000000   0.5500000), wk =   0.0200000
        k(   57) = (   0.0000000   0.0000000   0.5600000), wk =   0.0200000
        k(   58) = (   0.0000000   0.0000000   0.5700000), wk =   0.0200000
        k(   59) = (   0.0000000   0.0000000   0.5800000), wk =   0.0200000
        k(   60) = (   0.0000000   0.0000000   0.5900000), wk =   0.0200000
        k(   61) = (   0.0000000   0.0000000   0.6000000), wk =   0.0200000
        k(   62) = (   0.0000000   0.0000000   0.6100000), wk =   0.0200000
        k(   63) = (   0.0000000   0.0000000   0.6200000), wk =   0.0200000
        k(   64) = (   0.0000000   0.0000000   0.6300000), wk =   0.0200000
        k(   65) = (   0.0000000   0.0000000   0.6400000), wk =   0.0200000
        k(   66) = (   0.0000000   0.0000000   0.6500000), wk =   0.0200000
        k(   67) = (   0.0000000   0.0000000   0.6600000), wk =   0.0200000
        k(   68) = (   0.0000000   0.0000000   0.6700000), wk =   0.0200000
        k(   69) = (   0.0000000   0.0000000   0.6800000), wk =   0.0200000
        k(   70) = (   0.0000000   0.0000000   0.6900000), wk =   0.0200000
        k(   71) = (   0.0000000   0.0000000   0.7000000), wk =   0.0200000
        k(   72) = (   0.0000000   0.0000000   0.7100000), wk =   0.0200000
        k(   73) = (   0.0000000   0.0000000   0.7200000), wk =   0.0200000
        k(   74) = (   0.0000000   0.0000000   0.7300000), wk =   0.0200000
        k(   75) = (   0.0000000   0.0000000   0.7400000), wk =   0.0200000
        k(   76) = (   0.0000000   0.0000000   0.7500000), wk =   0.0200000
        k(   77) = (   0.0000000   0.0000000   0.7600000), wk =   0.0200000
        k(   78) = (   0.0000000   0.0000000   0.7700000), wk =   0.0200000
        k(   79) = (   0.0000000   0.0000000   0.7800000), wk =   0.0200000
        k(   80) = (   0.0000000   0.0000000   0.7900000), wk =   0.0200000
        k(   81) = (   0.0000000   0.0000000   0.8000000), wk =   0.0200000
        k(   82) = (   0.0000000   0.0000000   0.8100000), wk =   0.0200000
        k(   83) = (   0.0000000   0.0000000   0.8200000), wk =   0.0200000
        k(   84) = (   0.0000000   0.0000000   0.8300000), wk =   0.0200000
        k(   85) = (   0.0000000   0.0000000   0.8400000), wk =   0.0200000
        k(   86) = (   0.0000000   0.0000000   0.8500000), wk =   0.0200000
        k(   87) = (   0.0000000   0.0000000   0.8600000), wk =   0.0200000
        k(   88) = (   0.0000000   0.0000000   0.8700000), wk =   0.0200000
        k(   89) = (   0.0000000   0.0000000   0.8800000), wk =   0.0200000
        k(   90) = (   0.0000000   0.0000000   0.8900000), wk =   0.0200000
        k(   91) = (   0.0000000   0.0000000   0.9000000), wk =   0.0200000
        k(   92) = (   0.0000000   0.0000000   0.9100000), wk =   0.0200000
        k(   93) = (   0.0000000   0.0000000   0.9200000), wk =   0.0200000
        k(   94) = (   0.0000000   0.0000000   0.9300000), wk =   0.0200000
        k(   95) = (   0.0000000   0.0000000   0.9400000), wk =   0.0200000
        k(   96) = (   0.0000000   0.0000000   0.9500000), wk =   0.0200000
        k(   97) = (   0.0000000   0.0000000   0.9600000), wk =   0.0200000
        k(   98) = (   0.0000000   0.0000000   0.9700000), wk =   0.0200000
        k(   99) = (   0.0000000   0.0000000   0.9800000), wk =   0.0200000
        k(  100) = (   0.0000000   0.0000000   0.9900000), wk =   0.0200000

     Dense  grid:   534491 G-vectors     FFT dimensions: ( 108, 108,  96)

     Dynamical RAM for                 wfc:       8.28 MB

     Dynamical RAM for     wfc (w. buffer):       8.28 MB

     Dynamical RAM for           str. fact:       0.51 MB

     Dynamical RAM for           local pot:       0.00 MB

     Dynamical RAM for          nlocal pot:       3.57 MB

     Dynamical RAM for                qrad:       0.04 MB

     Dynamical RAM for          rho,v,vnew:       3.13 MB

     Dynamical RAM for           G-vectors:       2.17 MB

     Dynamical RAM for          h,s,v(r/c):       3.09 MB

     Dynamical RAM for          <psi|beta>:       0.11 MB

     Dynamical RAM for                 psi:      33.12 MB

     Dynamical RAM for                hpsi:      33.12 MB

     Dynamical RAM for      wfcinit/wfcrot:      29.68 MB

     Estimated static dynamical RAM per process >      21.38 MB

     Estimated max dynamical RAM per process >      90.83 MB

     Estimated total dynamical RAM >       1.42 GB

     The potential is recalculated from file :
     ./tmp/cnt42.save/charge-density.dat

     Starting wfc are  224 randomized atomic wfcs

     Band Structure Calculation
     Davidson diagonalization with overlap

     Computing kpt #:     1
     total cpu time spent up to now is        8.2 secs

     Computing kpt #:     2
     total cpu time spent up to now is       15.9 secs

     Computing kpt #:     3
     total cpu time spent up to now is       23.5 secs

     Computing kpt #:     4
     total cpu time spent up to now is       31.3 secs

     Computing kpt #:     5
     total cpu time spent up to now is       39.1 secs

     Computing kpt #:     6
     total cpu time spent up to now is       47.0 secs

     Computing kpt #:     7
     total cpu time spent up to now is       54.8 secs

     Computing kpt #:     8
     total cpu time spent up to now is       62.7 secs

     Computing kpt #:     9
     total cpu time spent up to now is       70.5 secs

     Computing kpt #:    10
     total cpu time spent up to now is       78.2 secs

     Computing kpt #:    11
     total cpu time spent up to now is       86.2 secs

     Computing kpt #:    12
     total cpu time spent up to now is       94.4 secs

     Computing kpt #:    13
     total cpu time spent up to now is      103.0 secs

     Computing kpt #:    14
     total cpu time spent up to now is      110.8 secs

     Computing kpt #:    15
     total cpu time spent up to now is      119.2 secs

     Computing kpt #:    16
     total cpu time spent up to now is      127.4 secs

     Computing kpt #:    17
     total cpu time spent up to now is      135.5 secs

     Computing kpt #:    18
     total cpu time spent up to now is      143.5 secs

     Computing kpt #:    19
     total cpu time spent up to now is      151.6 secs

     Computing kpt #:    20
     total cpu time spent up to now is      159.5 secs

     Computing kpt #:    21
     total cpu time spent up to now is      167.5 secs

     Computing kpt #:    22
     total cpu time spent up to now is      175.5 secs

     Computing kpt #:    23
     total cpu time spent up to now is      183.4 secs

     Computing kpt #:    24
     total cpu time spent up to now is      191.3 secs

     Computing kpt #:    25
     total cpu time spent up to now is      199.6 secs

     Computing kpt #:    26
     total cpu time spent up to now is      208.0 secs

     Computing kpt #:    27
     total cpu time spent up to now is      216.2 secs

     Computing kpt #:    28
     total cpu time spent up to now is      224.4 secs

     Computing kpt #:    29
     total cpu time spent up to now is      232.5 secs

     Computing kpt #:    30
     total cpu time spent up to now is      240.9 secs

     Computing kpt #:    31
     total cpu time spent up to now is      249.1 secs

     Computing kpt #:    32
     total cpu time spent up to now is      257.2 secs

     Computing kpt #:    33
     total cpu time spent up to now is      265.4 secs

     Computing kpt #:    34
     total cpu time spent up to now is      273.5 secs

     Computing kpt #:    35
     total cpu time spent up to now is      281.5 secs

     Computing kpt #:    36
     total cpu time spent up to now is      289.7 secs

     Computing kpt #:    37
     total cpu time spent up to now is      297.8 secs

     Computing kpt #:    38
     total cpu time spent up to now is      306.1 secs

     Computing kpt #:    39
     total cpu time spent up to now is      314.7 secs

     Computing kpt #:    40
     total cpu time spent up to now is      322.8 secs

     Computing kpt #:    41
     total cpu time spent up to now is      331.0 secs

     Computing kpt #:    42
     total cpu time spent up to now is      339.2 secs

     Computing kpt #:    43
     total cpu time spent up to now is      347.6 secs

     Computing kpt #:    44
     total cpu time spent up to now is      357.0 secs

     Computing kpt #:    45
     total cpu time spent up to now is      365.9 secs

     Computing kpt #:    46
     total cpu time spent up to now is      374.5 secs

     Computing kpt #:    47
     total cpu time spent up to now is      384.6 secs

     Computing kpt #:    48
     total cpu time spent up to now is      394.7 secs

     Computing kpt #:    49
     total cpu time spent up to now is      404.2 secs

     Computing kpt #:    50
     total cpu time spent up to now is      415.0 secs

     Computing kpt #:    51
     total cpu time spent up to now is      424.4 secs

     Computing kpt #:    52
     total cpu time spent up to now is      435.8 secs

     Computing kpt #:    53
     total cpu time spent up to now is      446.7 secs

     Computing kpt #:    54
     total cpu time spent up to now is      457.6 secs

     Computing kpt #:    55
     total cpu time spent up to now is      467.2 secs

     Computing kpt #:    56
     total cpu time spent up to now is      477.9 secs

     Computing kpt #:    57
     total cpu time spent up to now is      487.1 secs

     Computing kpt #:    58
     total cpu time spent up to now is      495.7 secs

     Computing kpt #:    59
     total cpu time spent up to now is      504.3 secs

     Computing kpt #:    60
     total cpu time spent up to now is      512.8 secs

     Computing kpt #:    61
     total cpu time spent up to now is      521.2 secs

     Computing kpt #:    62
     total cpu time spent up to now is      530.1 secs

     Computing kpt #:    63
     total cpu time spent up to now is      538.6 secs

     Computing kpt #:    64
     total cpu time spent up to now is      546.7 secs

     Computing kpt #:    65
     total cpu time spent up to now is      555.8 secs

     Computing kpt #:    66
     total cpu time spent up to now is      564.2 secs

     Computing kpt #:    67
     total cpu time spent up to now is      572.6 secs

     Computing kpt #:    68
     total cpu time spent up to now is      580.5 secs

     Computing kpt #:    69
     total cpu time spent up to now is      588.6 secs

     Computing kpt #:    70
     total cpu time spent up to now is      597.1 secs

     Computing kpt #:    71
     total cpu time spent up to now is      605.8 secs

     Computing kpt #:    72
     total cpu time spent up to now is      614.3 secs

     Computing kpt #:    73
     total cpu time spent up to now is      622.8 secs

     Computing kpt #:    74
     total cpu time spent up to now is      631.2 secs

     Computing kpt #:    75
     total cpu time spent up to now is      640.2 secs

     Computing kpt #:    76
     total cpu time spent up to now is      648.8 secs

     Computing kpt #:    77
     total cpu time spent up to now is      657.2 secs

     Computing kpt #:    78
     total cpu time spent up to now is      665.9 secs

     Computing kpt #:    79
     total cpu time spent up to now is      674.5 secs

     Computing kpt #:    80
     total cpu time spent up to now is      682.9 secs

     Computing kpt #:    81
     total cpu time spent up to now is      691.5 secs

     Computing kpt #:    82
     total cpu time spent up to now is      699.8 secs

     Computing kpt #:    83
     total cpu time spent up to now is      707.7 secs

     Computing kpt #:    84
     total cpu time spent up to now is      715.5 secs

     Computing kpt #:    85
     total cpu time spent up to now is      724.5 secs

     Computing kpt #:    86
     total cpu time spent up to now is      732.6 secs

     Computing kpt #:    87
     total cpu time spent up to now is      740.6 secs

     Computing kpt #:    88
     total cpu time spent up to now is      748.6 secs

     Computing kpt #:    89
     total cpu time spent up to now is      756.7 secs

     Computing kpt #:    90
     total cpu time spent up to now is      764.5 secs

     Computing kpt #:    91
     total cpu time spent up to now is      772.4 secs

     Computing kpt #:    92
     total cpu time spent up to now is      780.1 secs

     Computing kpt #:    93
     total cpu time spent up to now is      787.9 secs

     Computing kpt #:    94
     total cpu time spent up to now is      795.7 secs

     Computing kpt #:    95
     total cpu time spent up to now is      803.4 secs

     Computing kpt #:    96
     total cpu time spent up to now is      811.3 secs

     Computing kpt #:    97
     total cpu time spent up to now is      819.0 secs

     Computing kpt #:    98
     total cpu time spent up to now is      826.7 secs

     Computing kpt #:    99
     total cpu time spent up to now is      834.5 secs

     Computing kpt #:   100
     total cpu time spent up to now is      842.2 secs

     ethr =  1.00E-06,  avg # of iterations = 30.7

     total cpu time spent up to now is      842.2 secs

     End of band structure calculation

          k = 0.0000 0.0000 0.0000 ( 66731 PWs)   bands (ev):

   -21.5288 -20.7098 -20.5908 -20.5894 -20.5232 -19.7986 -19.7765 -19.6116
   -19.5839 -18.3382 -18.2635 -18.1568 -18.0495 -17.5511 -17.4992 -17.3368
   -17.3361 -17.3166 -17.2755 -17.2222 -17.1507 -15.5268 -15.3779 -15.2359
   -15.2353 -15.2317 -14.6841 -14.5323 -14.5020 -14.0668 -14.0036 -13.9285
   -13.9019 -13.4622 -13.3972 -13.3026 -13.1549 -12.1115 -12.1098 -11.6809
   -11.5831 -11.5797 -11.5336 -11.4296 -11.4251 -11.3638 -11.3060 -10.7724
   -10.7691 -10.5117 -10.4968  -9.9163  -9.2652  -9.1555  -9.1411  -9.0892
    -9.0405  -8.9721  -8.9518  -8.9327  -8.9082  -8.8687  -8.8411  -8.8034
    -8.7986  -8.7272  -8.6944  -8.6295  -8.6257  -8.5812  -8.2273  -7.9455
    -7.8708  -7.8294  -7.7774  -7.6185  -7.5783  -7.4993  -7.4641  -6.9160
    -6.8685  -6.5394  -6.4045  -6.2475  -6.1993  -5.8690  -5.8642  -5.8024
    -5.7907  -5.7734  -5.6552  -5.5467  -5.3722  -5.2766  -5.1840  -4.6067
    -4.5875  -4.5120  -4.5080  -4.4445  -4.4263  -4.4206  -4.3480  -4.2970
    -4.2920  -3.1175  -2.6830  -2.5846  -2.4744  -2.2672  -1.7412  -1.6606
    -0.5366  -0.4268  -0.4138  -0.4026  -0.0540   0.0677   0.3772   0.4546
     0.4998   1.3112   1.4068   1.8754   1.9095   1.9535   1.9784   2.2963
     2.4557   2.5164

     occupation numbers 
     1.0000   1.0000   1.0000   1.0000   1.0000   1.0000   1.0000   1.0000
     1.0000   1.0000   1.0000   1.0000   1.0000   1.0000   1.0000   1.0000
     1.0000   1.0000   1.0000   1.0000   1.0000   1.0000   1.0000   1.0000
     1.0000   1.0000   1.0000   1.0000   1.0000   1.0000   1.0000   1.0000
     1.0000   1.0000   1.0000   1.0000   1.0000   1.0000   1.0000   1.0000
     1.0000   1.0000   1.0000   1.0000   1.0000   1.0000   1.0000   1.0000
     1.0000   1.0000   1.0000   1.0000   1.0000   1.0000   1.0000   1.0000
     1.0000   1.0000   1.0000   1.0000   1.0000   1.0000   1.0000   1.0000
     1.0000   1.0000   1.0000   1.0000   1.0000   1.0000   1.0000   1.0000
     1.0000   1.0000   1.0000   1.0000   1.0000   1.0000   1.0000   1.0000
     1.0000   1.0000   1.0000   1.0000   1.0000   1.0000   1.0000   1.0000
     1.0000   1.0000   1.0000   1.0000   1.0000   1.0000   1.0000   1.0000
     1.0000   1.0000   1.0000   1.0000   1.0000   1.0000   1.0000   1.0000
     1.0000   1.0000   1.0000   1.0000   1.0000   1.0000   1.0000   1.0000
     0.0000   0.0000   0.0000   0.0000   0.0000   0.0000   0.0000   0.0000
     0.0000   0.0000   0.0000   0.0000   0.0000   0.0000   0.0000   0.0000
     0.0000   0.0000

          k = 0.0000 0.0000 0.0109 ( 66727 PWs)   bands (ev):

   -21.5287 -20.7112 -20.5907 -20.5893 -20.5216 -19.7998 -19.7780 -19.6100
   -19.5826 -18.3383 -18.2636 -18.1653 -18.0406 -17.5520 -17.5005 -17.3421
   -17.3357 -17.3152 -17.2879 -17.2097 -17.1445 -15.5268 -15.3796 -15.2520
   -15.2358 -15.2155 -14.6826 -14.5361 -14.4984 -14.0676 -14.0134 -13.9275
   -13.8910 -13.4738 -13.3860 -13.3139 -13.1433 -12.1398 -12.0814 -11.6825
   -11.5975 -11.5643 -11.5342 -11.4593 -11.4007 -11.3729 -11.2892 -10.7786
   -10.7632 -10.5136 -10.4941  -9.9162  -9.2681  -9.1542  -9.1510  -9.0931
    -9.0295  -8.9814  -8.9483  -8.9313  -8.9086  -8.8689  -8.8448  -8.8034
    -8.7951  -8.7250  -8.6985  -8.6404  -8.6201  -8.5666  -8.2269  -7.9477
    -7.8686  -7.8291  -7.7780  -7.6242  -7.5727  -7.5071  -7.4556  -6.9353
    -6.8487  -6.5395  -6.4042  -6.2476  -6.1994  -5.8756  -5.8647  -5.8019
    -5.7862  -5.7802  -5.6460  -5.5469  -5.3722  -5.2766  -5.1839  -4.6121
    -4.5966  -4.5091  -4.5034  -4.4385  -4.4267  -4.4215  -4.3483  -4.3010
    -4.2856  -3.1177  -2.6835  -2.5852  -2.4745  -2.2671  -1.7423  -1.6602
    -0.5368  -0.4472  -0.4123  -0.3821  -0.0536   0.0680   0.3776   0.4545
     0.4998   1.3067   1.4113   1.8681   1.9053   1.9606   1.9824   2.2964
     2.4467   2.5252

     occupation numbers 
     1.0000   1.0000   1.0000   1.0000   1.0000   1.0000   1.0000   1.0000
     1.0000   1.0000   1.0000   1.0000   1.0000   1.0000   1.0000   1.0000
     1.0000   1.0000   1.0000   1.0000   1.0000   1.0000   1.0000   1.0000
     1.0000   1.0000   1.0000   1.0000   1.0000   1.0000   1.0000   1.0000
     1.0000   1.0000   1.0000   1.0000   1.0000   1.0000   1.0000   1.0000
     1.0000   1.0000   1.0000   1.0000   1.0000   1.0000   1.0000   1.0000
     1.0000   1.0000   1.0000   1.0000   1.0000   1.0000   1.0000   1.0000
     1.0000   1.0000   1.0000   1.0000   1.0000   1.0000   1.0000   1.0000
     1.0000   1.0000   1.0000   1.0000   1.0000   1.0000   1.0000   1.0000
     1.0000   1.0000   1.0000   1.0000   1.0000   1.0000   1.0000   1.0000
     1.0000   1.0000   1.0000   1.0000   1.0000   1.0000   1.0000   1.0000
     1.0000   1.0000   1.0000   1.0000   1.0000   1.0000   1.0000   1.0000
     1.0000   1.0000   1.0000   1.0000   1.0000   1.0000   1.0000   1.0000
     1.0000   1.0000   1.0000   1.0000   1.0000   1.0000   1.0000   1.0000
     0.0000   0.0000   0.0000   0.0000   0.0000   0.0000   0.0000   0.0000
     0.0000   0.0000   0.0000   0.0000   0.0000   0.0000   0.0000   0.0000
     0.0000   0.0000

          k = 0.0000 0.0000 0.0217 ( 66747 PWs)   bands (ev):

   -21.5285 -20.7152 -20.5905 -20.5892 -20.5170 -19.8032 -19.7824 -19.6052
   -19.5788 -18.3386 -18.2640 -18.1854 -18.0192 -17.5549 -17.5041 -17.3582
   -17.3324 -17.3121 -17.3111 -17.1851 -17.1279 -15.5269 -15.3846 -15.2709
   -15.2357 -15.1983 -14.6780 -14.5446 -14.4906 -14.0701 -14.0356 -13.9247
   -13.8659 -13.4980 -13.3657 -13.3386 -13.1153 -12.1689 -12.0521 -11.6881
   -11.6128 -11.5468 -11.5363 -11.4897 -11.4162 -11.3513 -11.2581 -10.7867
   -10.7567 -10.5172 -10.4882  -9.9160  -9.2764  -9.1753  -9.1512  -9.0994
    -9.0078  -8.9998  -8.9466  -8.9273  -8.9101  -8.8702  -8.8532  -8.8007
    -8.7877  -8.7239  -8.7075  -8.6532  -8.6064  -8.5395  -8.2259  -7.9540
    -7.8630  -7.8286  -7.7792  -7.6372  -7.5608  -7.5219  -7.4389  -6.9681
    -6.8157  -6.5399  -6.4035  -6.2478  -6.1996  -5.8917  -5.8664  -5.8047
    -5.8007  -5.7680  -5.6238  -5.5476  -5.3727  -5.2764  -5.1838  -4.6263
    -4.6171  -4.5123  -4.4841  -4.4293  -4.4235  -4.4226  -4.3486  -4.3039
    -4.2755  -3.1184  -2.6854  -2.5872  -2.4751  -2.2668  -1.7455  -1.6594
    -0.5375  -0.4761  -0.4083  -0.3529  -0.0526   0.0689   0.3785   0.4542
     0.4999   1.2947   1.4224   1.8511   1.8947   1.9773   1.9922   2.2967
     2.4271   2.5438

     occupation numbers 
     1.0000   1.0000   1.0000   1.0000   1.0000   1.0000   1.0000   1.0000
     1.0000   1.0000   1.0000   1.0000   1.0000   1.0000   1.0000   1.0000
     1.0000   1.0000   1.0000   1.0000   1.0000   1.0000   1.0000   1.0000
     1.0000   1.0000   1.0000   1.0000   1.0000   1.0000   1.0000   1.0000
     1.0000   1.0000   1.0000   1.0000   1.0000   1.0000   1.0000   1.0000
     1.0000   1.0000   1.0000   1.0000   1.0000   1.0000   1.0000   1.0000
     1.0000   1.0000   1.0000   1.0000   1.0000   1.0000   1.0000   1.0000
     1.0000   1.0000   1.0000   1.0000   1.0000   1.0000   1.0000   1.0000
     1.0000   1.0000   1.0000   1.0000   1.0000   1.0000   1.0000   1.0000
     1.0000   1.0000   1.0000   1.0000   1.0000   1.0000   1.0000   1.0000
     1.0000   1.0000   1.0000   1.0000   1.0000   1.0000   1.0000   1.0000
     1.0000   1.0000   1.0000   1.0000   1.0000   1.0000   1.0000   1.0000
     1.0000   1.0000   1.0000   1.0000   1.0000   1.0000   1.0000   1.0000
     1.0000   1.0000   1.0000   1.0000   1.0000   1.0000   1.0000   1.0000
     0.0000   0.0000   0.0000   0.0000   0.0000   0.0000   0.0000   0.0000
     0.0000   0.0000   0.0000   0.0000   0.0000   0.0000   0.0000   0.0000
     0.0000   0.0000

          k = 0.0000 0.0000 0.0326 ( 66755 PWs)   bands (ev):

   -21.5282 -20.7215 -20.5902 -20.5888 -20.5098 -19.8085 -19.7891 -19.5976
   -19.5726 -18.3392 -18.2650 -18.2097 -17.9924 -17.5595 -17.5097 -17.3804
   -17.3395 -17.3270 -17.3046 -17.1572 -17.1049 -15.5269 -15.3927 -15.2902
   -15.2353 -15.1821 -14.6705 -14.5549 -14.4816 -14.0739 -14.0619 -13.9202
   -13.8346 -13.5255 -13.3806 -13.3323 -13.0795 -12.1978 -12.0229 -11.6979
   -11.6270 -11.5408 -11.5285 -11.5178 -11.4442 -11.3164 -11.2237 -10.7952
   -10.7507 -10.5206 -10.4809  -9.9156  -9.2888  -9.2063  -9.1477  -9.1061
    -9.0208  -8.9850  -8.9507  -8.9205  -8.9144  -8.8717  -8.8630  -8.7945
    -8.7800  -8.7321  -8.7160  -8.6505  -8.5888  -8.5098  -8.2239  -7.9628
    -7.8555  -7.8274  -7.7812  -7.6524  -7.5471  -7.5377  -7.4195  -7.0028
    -6.7803  -6.5404  -6.4022  -6.2480  -6.2001  -5.9114  -5.8688  -5.8319
    -5.7986  -5.7487  -5.5956  -5.5489  -5.3736  -5.2761  -5.1834  -4.6460
    -4.6422  -4.5173  -4.4611  -4.4346  -4.4255  -4.4004  -4.3498  -4.3034
    -4.2638  -3.1196  -2.6883  -2.5902  -2.4757  -2.2657  -1.7506  -1.6583
    -0.5384  -0.5056  -0.4016  -0.3230  -0.0510   0.0703   0.3802   0.4538
     0.5000   1.2786   1.4375   1.8300   1.8807   1.9979   2.0050   2.2973
     2.4045   2.5295

     occupation numbers 
     1.0000   1.0000   1.0000   1.0000   1.0000   1.0000   1.0000   1.0000
     1.0000   1.0000   1.0000   1.0000   1.0000   1.0000   1.0000   1.0000
     1.0000   1.0000   1.0000   1.0000   1.0000   1.0000   1.0000   1.0000
     1.0000   1.0000   1.0000   1.0000   1.0000   1.0000   1.0000   1.0000
     1.0000   1.0000   1.0000   1.0000   1.0000   1.0000   1.0000   1.0000
     1.0000   1.0000   1.0000   1.0000   1.0000   1.0000   1.0000   1.0000
     1.0000   1.0000   1.0000   1.0000   1.0000   1.0000   1.0000   1.0000
     1.0000   1.0000   1.0000   1.0000   1.0000   1.0000   1.0000   1.0000
     1.0000   1.0000   1.0000   1.0000   1.0000   1.0000   1.0000   1.0000
     1.0000   1.0000   1.0000   1.0000   1.0000   1.0000   1.0000   1.0000
     1.0000   1.0000   1.0000   1.0000   1.0000   1.0000   1.0000   1.0000
     1.0000   1.0000   1.0000   1.0000   1.0000   1.0000   1.0000   1.0000
     1.0000   1.0000   1.0000   1.0000   1.0000   1.0000   1.0000   1.0000
     1.0000   1.0000   1.0000   1.0000   1.0000   1.0000   1.0000   1.0000
     0.0000   0.0000   0.0000   0.0000   0.0000   0.0000   0.0000   0.0000
     0.0000   0.0000   0.0000   0.0000   0.0000   0.0000   0.0000   0.0000
     0.0000   0.0000

          k = 0.0000 0.0000 0.0435 ( 66755 PWs)   bands (ev):

   -21.5277 -20.7297 -20.5897 -20.5883 -20.5003 -19.8155 -19.7977 -19.5878
   -19.5644 -18.3403 -18.2681 -18.2334 -17.9628 -17.5655 -17.5171 -17.4059
   -17.3682 -17.3198 -17.2960 -17.1280 -17.0782 -15.5269 -15.4037 -15.3099
   -15.2348 -15.1670 -14.6603 -14.5659 -14.4723 -14.0888 -14.0789 -13.9142
   -13.8004 -13.5541 -13.4176 -13.3062 -13.0404 -12.2267 -11.9935 -11.7125
   -11.6403 -11.5493 -11.5436 -11.5095 -11.4686 -11.2799 -11.1882 -10.8039
   -10.7454 -10.5231 -10.4727  -9.9150  -9.3045  -9.2403  -9.1460  -9.1138
    -9.0416  -8.9666  -8.9609  -8.9219  -8.9115  -8.8720  -8.8711  -8.7946
    -8.7742  -8.7392  -8.7193  -8.6350  -8.5691  -8.4799  -8.2209  -7.9731
    -7.8477  -7.8248  -7.7842  -7.6685  -7.5532  -7.5331  -7.3987  -7.0378
    -6.7442  -6.5411  -6.4004  -6.2482  -6.2006  -5.9328  -5.8718  -5.8615
    -5.7958  -5.7278  -5.5645  -5.5507  -5.3748  -5.2755  -5.1828  -4.6693
    -4.6684  -4.5238  -4.4422  -4.4365  -4.4271  -4.3743  -4.3521  -4.2994
    -4.2509  -3.1212  -2.6925  -2.5944  -2.4764  -2.2643  -1.7574  -1.6568
    -0.5394  -0.5352  -0.3925  -0.2928  -0.0486   0.0723   0.3827   0.4533
     0.5002   1.2601   1.4546   1.8071   1.8650   2.0189   2.0202   2.2981
     2.3807   2.5032

     occupation numbers 
     1.0000   1.0000   1.0000   1.0000   1.0000   1.0000   1.0000   1.0000
     1.0000   1.0000   1.0000   1.0000   1.0000   1.0000   1.0000   1.0000
     1.0000   1.0000   1.0000   1.0000   1.0000   1.0000   1.0000   1.0000
     1.0000   1.0000   1.0000   1.0000   1.0000   1.0000   1.0000   1.0000
     1.0000   1.0000   1.0000   1.0000   1.0000   1.0000   1.0000   1.0000
     1.0000   1.0000   1.0000   1.0000   1.0000   1.0000   1.0000   1.0000
     1.0000   1.0000   1.0000   1.0000   1.0000   1.0000   1.0000   1.0000
     1.0000   1.0000   1.0000   1.0000   1.0000   1.0000   1.0000   1.0000
     1.0000   1.0000   1.0000   1.0000   1.0000   1.0000   1.0000   1.0000
     1.0000   1.0000   1.0000   1.0000   1.0000   1.0000   1.0000   1.0000
     1.0000   1.0000   1.0000   1.0000   1.0000   1.0000   1.0000   1.0000
     1.0000   1.0000   1.0000   1.0000   1.0000   1.0000   1.0000   1.0000
     1.0000   1.0000   1.0000   1.0000   1.0000   1.0000   1.0000   1.0000
     1.0000   1.0000   1.0000   1.0000   1.0000   1.0000   1.0000   1.0000
     0.0000   0.0000   0.0000   0.0000   0.0000   0.0000   0.0000   0.0000
     0.0000   0.0000   0.0000   0.0000   0.0000   0.0000   0.0000   0.0000
     0.0000   0.0000

          k = 0.0000 0.0000 0.0544 ( 66783 PWs)   bands (ev):

   -21.5271 -20.7394 -20.5891 -20.5877 -20.4891 -19.8239 -19.8077 -19.5763
   -19.5544 -18.3427 -18.2786 -18.2488 -17.9322 -17.5728 -17.5258 -17.4332
   -17.3975 -17.3110 -17.2857 -17.0982 -17.0495 -15.5269 -15.4174 -15.3300
   -15.2340 -15.1533 -14.6475 -14.5773 -14.4634 -14.1150 -14.0849 -13.9070
   -13.7646 -13.5829 -13.4570 -13.2793 -12.9999 -12.2553 -11.9644 -11.7321
   -11.6522 -11.5703 -11.5607 -11.4903 -11.4852 -11.2426 -11.1524 -10.8129
   -10.7411 -10.5247 -10.4640  -9.9143  -9.3229  -9.2758  -9.1493  -9.1227
    -9.0595  -8.9772  -8.9549  -8.9306  -8.9046  -8.8768  -8.8683  -8.8105
    -8.7697  -8.7304  -8.7160  -8.6140  -8.5484  -8.4506  -8.2167  -7.9842
    -7.8417  -7.8197  -7.7884  -7.6848  -7.5685  -7.5196  -7.3771  -7.0730
    -6.7077  -6.5421  -6.3983  -6.2488  -6.2017  -5.9552  -5.8924  -5.8758
    -5.7927  -5.7065  -5.5531  -5.5322  -5.3766  -5.2750  -5.1822  -4.6974
    -4.6925  -4.5319  -4.4517  -4.4293  -4.4114  -4.3560  -4.3463  -4.2928
    -4.2374  -3.1235  -2.6978  -2.5999  -2.4775  -2.2625  -1.7660  -1.6555
    -0.5647  -0.5402  -0.3817  -0.2625  -0.0456   0.0748   0.3857   0.4525
     0.5002   1.2403   1.4725   1.7834   1.8483   2.0332   2.0431   2.2991
     2.3562   2.4764

     occupation numbers 
     1.0000   1.0000   1.0000   1.0000   1.0000   1.0000   1.0000   1.0000
     1.0000   1.0000   1.0000   1.0000   1.0000   1.0000   1.0000   1.0000
     1.0000   1.0000   1.0000   1.0000   1.0000   1.0000   1.0000   1.0000
     1.0000   1.0000   1.0000   1.0000   1.0000   1.0000   1.0000   1.0000
     1.0000   1.0000   1.0000   1.0000   1.0000   1.0000   1.0000   1.0000
     1.0000   1.0000   1.0000   1.0000   1.0000   1.0000   1.0000   1.0000
     1.0000   1.0000   1.0000   1.0000   1.0000   1.0000   1.0000   1.0000
     1.0000   1.0000   1.0000   1.0000   1.0000   1.0000   1.0000   1.0000
     1.0000   1.0000   1.0000   1.0000   1.0000   1.0000   1.0000   1.0000
     1.0000   1.0000   1.0000   1.0000   1.0000   1.0000   1.0000   1.0000
     1.0000   1.0000   1.0000   1.0000   1.0000   1.0000   1.0000   1.0000
     1.0000   1.0000   1.0000   1.0000   1.0000   1.0000   1.0000   1.0000
     1.0000   1.0000   1.0000   1.0000   1.0000   1.0000   1.0000   1.0000
     1.0000   1.0000   1.0000   1.0000   1.0000   1.0000   1.0000   1.0000
     0.0000   0.0000   0.0000   0.0000   0.0000   0.0000   0.0000   0.0000
     0.0000   0.0000   0.0000   0.0000   0.0000   0.0000   0.0000   0.0000
     0.0000   0.0000

          k = 0.0000 0.0000 0.0652 ( 66787 PWs)   bands (ev):

   -21.5263 -20.7501 -20.5884 -20.5870 -20.4765 -19.8334 -19.8187 -19.5634
   -19.5430 -18.3485 -18.2968 -18.2537 -17.9006 -17.5809 -17.5355 -17.4614
   -17.4272 -17.3008 -17.2740 -17.0677 -17.0194 -15.5269 -15.4332 -15.3504
   -15.2332 -15.1412 -14.6324 -14.5889 -14.4547 -14.1399 -14.0916 -13.8987
   -13.7277 -13.6116 -13.4972 -13.2526 -12.9583 -12.2838 -11.9355 -11.7565
   -11.6630 -11.5997 -11.5733 -11.4940 -11.4702 -11.2049 -11.1167 -10.8218
   -10.7374 -10.5251 -10.4547  -9.9133  -9.3430  -9.3120  -9.1603  -9.1323
    -9.0711  -8.9978  -8.9501  -8.9394  -8.9052  -8.8749  -8.8648  -8.8339
    -8.7614  -8.7119  -8.7072  -8.5905  -8.5274  -8.4231  -8.2108  -7.9957
    -7.8382  -7.8116  -7.7939  -7.7003  -7.5829  -7.5061  -7.3545  -7.1078
    -6.6712  -6.5432  -6.3958  -6.2492  -6.2028  -5.9781  -5.9236  -5.8798
    -5.7890  -5.6842  -5.5554  -5.4989  -5.3782  -5.2742  -5.1812  -4.7261
    -4.7173  -4.5408  -4.4622  -4.4314  -4.3860  -4.3602  -4.3170  -4.2840
    -4.2230  -3.1261  -2.7043  -2.6064  -2.4788  -2.2603  -1.7758  -1.6543
    -0.5942  -0.5404  -0.3689  -0.2321  -0.0418   0.0780   0.3894   0.4515
     0.5002   1.2198   1.4909   1.7593   1.8310   2.0480   2.0662   2.3002
     2.3314   2.4497

     occupation numbers 
     1.0000   1.0000   1.0000   1.0000   1.0000   1.0000   1.0000   1.0000
     1.0000   1.0000   1.0000   1.0000   1.0000   1.0000   1.0000   1.0000
     1.0000   1.0000   1.0000   1.0000   1.0000   1.0000   1.0000   1.0000
     1.0000   1.0000   1.0000   1.0000   1.0000   1.0000   1.0000   1.0000
     1.0000   1.0000   1.0000   1.0000   1.0000   1.0000   1.0000   1.0000
     1.0000   1.0000   1.0000   1.0000   1.0000   1.0000   1.0000   1.0000
     1.0000   1.0000   1.0000   1.0000   1.0000   1.0000   1.0000   1.0000
     1.0000   1.0000   1.0000   1.0000   1.0000   1.0000   1.0000   1.0000
     1.0000   1.0000   1.0000   1.0000   1.0000   1.0000   1.0000   1.0000
     1.0000   1.0000   1.0000   1.0000   1.0000   1.0000   1.0000   1.0000
     1.0000   1.0000   1.0000   1.0000   1.0000   1.0000   1.0000   1.0000
     1.0000   1.0000   1.0000   1.0000   1.0000   1.0000   1.0000   1.0000
     1.0000   1.0000   1.0000   1.0000   1.0000   1.0000   1.0000   1.0000
     1.0000   1.0000   1.0000   1.0000   1.0000   1.0000   1.0000   1.0000
     0.0000   0.0000   0.0000   0.0000   0.0000   0.0000   0.0000   0.0000
     0.0000   0.0000   0.0000   0.0000   0.0000   0.0000   0.0000   0.0000
     0.0000   0.0000

          k = 0.0000 0.0000 0.0761 ( 66751 PWs)   bands (ev):

   -21.5254 -20.7614 -20.5874 -20.5860 -20.4627 -19.8434 -19.8300 -19.5498
   -19.5307 -18.3616 -18.3114 -18.2546 -17.8685 -17.5896 -17.5457 -17.4902
   -17.4569 -17.2895 -17.2614 -17.0369 -16.9885 -15.5266 -15.4508 -15.3711
   -15.2320 -15.1308 -14.6152 -14.6005 -14.4466 -14.1627 -14.0987 -13.8896
   -13.6900 -13.6398 -13.5378 -13.2264 -12.9160 -12.3121 -11.9064 -11.7842
   -11.6722 -11.6326 -11.5838 -11.4977 -11.4494 -11.1668 -11.0810 -10.8304
   -10.7346 -10.5242 -10.4448  -9.9122  -9.3647  -9.3480  -9.1790  -9.1427
    -9.0770  -9.0205  -8.9514  -8.9489  -8.9112  -8.8714  -8.8682  -8.8504
    -8.7455  -8.6951  -8.6900  -8.5655  -8.5052  -8.3971  -8.2022  -8.0074
    -7.8362  -7.8011  -7.8010  -7.7144  -7.5966  -7.4930  -7.3311  -7.1421
    -6.6344  -6.5442  -6.3927  -6.2494  -6.2040  -6.0010  -5.9550  -5.8839
    -5.7851  -5.6618  -5.5585  -5.4649  -5.3804  -5.2732  -5.1801  -4.7551
    -4.7426  -4.5504  -4.4735  -4.4336  -4.3647  -4.3601  -4.2865  -4.2738
    -4.2080  -3.1289  -2.7119  -2.6140  -2.4801  -2.2576  -1.7865  -1.6532
    -0.6233  -0.5401  -0.3544  -0.2015  -0.0370   0.0820   0.3942   0.4508
     0.5008   1.1988   1.5096   1.7349   1.8134   2.0625   2.0897   2.3002
     2.3084   2.4231

     occupation numbers 
     1.0000   1.0000   1.0000   1.0000   1.0000   1.0000   1.0000   1.0000
     1.0000   1.0000   1.0000   1.0000   1.0000   1.0000   1.0000   1.0000
     1.0000   1.0000   1.0000   1.0000   1.0000   1.0000   1.0000   1.0000
     1.0000   1.0000   1.0000   1.0000   1.0000   1.0000   1.0000   1.0000
     1.0000   1.0000   1.0000   1.0000   1.0000   1.0000   1.0000   1.0000
     1.0000   1.0000   1.0000   1.0000   1.0000   1.0000   1.0000   1.0000
     1.0000   1.0000   1.0000   1.0000   1.0000   1.0000   1.0000   1.0000
     1.0000   1.0000   1.0000   1.0000   1.0000   1.0000   1.0000   1.0000
     1.0000   1.0000   1.0000   1.0000   1.0000   1.0000   1.0000   1.0000
     1.0000   1.0000   1.0000   1.0000   1.0000   1.0000   1.0000   1.0000
     1.0000   1.0000   1.0000   1.0000   1.0000   1.0000   1.0000   1.0000
     1.0000   1.0000   1.0000   1.0000   1.0000   1.0000   1.0000   1.0000
     1.0000   1.0000   1.0000   1.0000   1.0000   1.0000   1.0000   1.0000
     1.0000   1.0000   1.0000   1.0000   1.0000   1.0000   1.0000   1.0000
     0.0000   0.0000   0.0000   0.0000   0.0000   0.0000   0.0000   0.0000
     0.0000   0.0000   0.0000   0.0000   0.0000   0.0000   0.0000   0.0000
     0.0000   0.0000

          k = 0.0000 0.0000 0.0870 ( 66759 PWs)   bands (ev):

   -21.5243 -20.7733 -20.5864 -20.5850 -20.4480 -19.8543 -19.8421 -19.5351
   -19.5171 -18.3834 -18.3187 -18.2544 -17.8361 -17.5989 -17.5566 -17.5193
   -17.4869 -17.2773 -17.2478 -17.0058 -16.9570 -15.5266 -15.4700 -15.3923
   -15.2309 -15.1225 -14.6124 -14.5963 -14.4392 -14.1836 -14.1066 -13.8801
   -13.6672 -13.6517 -13.5786 -13.2011 -12.8735 -12.3403 -11.8782 -11.8153
   -11.6798 -11.6675 -11.5924 -11.4991 -11.4284 -11.1289 -11.0461 -10.8390
   -10.7329 -10.5222 -10.4346  -9.9109  -9.3878  -9.3851  -9.2037  -9.1538
    -9.0816  -9.0431  -8.9607  -8.9579  -8.9206  -8.8867  -8.8684  -8.8487
    -8.7230  -8.6817  -8.6670  -8.5403  -8.4832  -8.3746  -8.1912  -8.0192
    -7.8352  -7.8105  -7.7901  -7.7270  -7.6098  -7.4808  -7.3073  -7.1754
    -6.5979  -6.5454  -6.3896  -6.2496  -6.2056  -6.0244  -5.9864  -5.8889
    -5.7815  -5.6395  -5.5616  -5.4306  -5.3826  -5.2720  -5.1788  -4.7842
    -4.7682  -4.5607  -4.4854  -4.4358  -4.3699  -4.3345  -4.2626  -4.2554
    -4.1926  -3.1325  -2.7208  -2.6226  -2.4817  -2.2546  -1.7986  -1.6525
    -0.6525  -0.5390  -0.3388  -0.1710  -0.0319   0.0862   0.3993   0.4496
     0.5011   1.1772   1.5281   1.7102   1.7953   2.0763   2.1131   2.2811
     2.3045   2.3964

     occupation numbers 
     1.0000   1.0000   1.0000   1.0000   1.0000   1.0000   1.0000   1.0000
     1.0000   1.0000   1.0000   1.0000   1.0000   1.0000   1.0000   1.0000
     1.0000   1.0000   1.0000   1.0000   1.0000   1.0000   1.0000   1.0000
     1.0000   1.0000   1.0000   1.0000   1.0000   1.0000   1.0000   1.0000
     1.0000   1.0000   1.0000   1.0000   1.0000   1.0000   1.0000   1.0000
     1.0000   1.0000   1.0000   1.0000   1.0000   1.0000   1.0000   1.0000
     1.0000   1.0000   1.0000   1.0000   1.0000   1.0000   1.0000   1.0000
     1.0000   1.0000   1.0000   1.0000   1.0000   1.0000   1.0000   1.0000
     1.0000   1.0000   1.0000   1.0000   1.0000   1.0000   1.0000   1.0000
     1.0000   1.0000   1.0000   1.0000   1.0000   1.0000   1.0000   1.0000
     1.0000   1.0000   1.0000   1.0000   1.0000   1.0000   1.0000   1.0000
     1.0000   1.0000   1.0000   1.0000   1.0000   1.0000   1.0000   1.0000
     1.0000   1.0000   1.0000   1.0000   1.0000   1.0000   1.0000   1.0000
     1.0000   1.0000   1.0000   1.0000   1.0000   1.0000   1.0000   1.0000
     0.0000   0.0000   0.0000   0.0000   0.0000   0.0000   0.0000   0.0000
     0.0000   0.0000   0.0000   0.0000   0.0000   0.0000   0.0000   0.0000
     0.0000   0.0000

          k = 0.0000 0.0000 0.0979 ( 66747 PWs)   bands (ev):

   -21.5231 -20.7856 -20.5853 -20.5838 -20.4326 -19.8654 -19.8543 -19.5197
   -19.5028 -18.4099 -18.3214 -18.2537 -17.8036 -17.6084 -17.5677 -17.5486
   -17.5169 -17.2644 -17.2336 -16.9744 -16.9250 -15.5265 -15.4904 -15.4141
   -15.2295 -15.1166 -14.6242 -14.5756 -14.4329 -14.2019 -14.1148 -13.8700
   -13.6939 -13.6191 -13.6129 -13.1765 -12.8305 -12.3683 -11.8503 -11.8482
   -11.7038 -11.6851 -11.5993 -11.4989 -11.4067 -11.0906 -11.0115 -10.8468
   -10.7320 -10.5190 -10.4240  -9.9095  -9.4219  -9.4123  -9.2313  -9.1652
    -9.0920  -9.0607  -8.9757  -8.9672  -8.9333  -8.9040  -8.8642  -8.8432
    -8.6965  -8.6667  -8.6434  -8.5144  -8.4609  -8.3551  -8.1765  -8.0308
    -7.8345  -7.8223  -7.7785  -7.7379  -7.6222  -7.4686  -7.2829  -7.2090
    -6.5615  -6.5467  -6.3864  -6.2496  -6.2076  -6.0479  -6.0178  -5.8935
    -5.7775  -5.6172  -5.5656  -5.3960  -5.3855  -5.2707  -5.1773  -4.8134
    -4.7939  -4.5713  -4.4977  -4.4386  -4.3757  -4.3088  -4.2505  -4.2240
    -4.1768  -3.1367  -2.7308  -2.6323  -2.4833  -2.2513  -1.8117  -1.6524
    -0.6813  -0.5372  -0.3216  -0.1406  -0.0260   0.0910   0.4052   0.4485
     0.5013   1.1554   1.5466   1.6855   1.7774   2.0894   2.1360   2.2573
     2.3063   2.3697

     occupation numbers 
     1.0000   1.0000   1.0000   1.0000   1.0000   1.0000   1.0000   1.0000
     1.0000   1.0000   1.0000   1.0000   1.0000   1.0000   1.0000   1.0000
     1.0000   1.0000   1.0000   1.0000   1.0000   1.0000   1.0000   1.0000
     1.0000   1.0000   1.0000   1.0000   1.0000   1.0000   1.0000   1.0000
     1.0000   1.0000   1.0000   1.0000   1.0000   1.0000   1.0000   1.0000
     1.0000   1.0000   1.0000   1.0000   1.0000   1.0000   1.0000   1.0000
     1.0000   1.0000   1.0000   1.0000   1.0000   1.0000   1.0000   1.0000
     1.0000   1.0000   1.0000   1.0000   1.0000   1.0000   1.0000   1.0000
     1.0000   1.0000   1.0000   1.0000   1.0000   1.0000   1.0000   1.0000
     1.0000   1.0000   1.0000   1.0000   1.0000   1.0000   1.0000   1.0000
     1.0000   1.0000   1.0000   1.0000   1.0000   1.0000   1.0000   1.0000
     1.0000   1.0000   1.0000   1.0000   1.0000   1.0000   1.0000   1.0000
     1.0000   1.0000   1.0000   1.0000   1.0000   1.0000   1.0000   1.0000
     1.0000   1.0000   1.0000   1.0000   1.0000   1.0000   1.0000   1.0000
     0.0000   0.0000   0.0000   0.0000   0.0000   0.0000   0.0000   0.0000
     0.0000   0.0000   0.0000   0.0000   0.0000   0.0000   0.0000   0.0000
     0.0000   0.0000

          k = 0.0000 0.0000 0.1087 ( 66763 PWs)   bands (ev):

   -21.5218 -20.7983 -20.5841 -20.5825 -20.4166 -19.8770 -19.8669 -19.5039
   -19.4878 -18.4384 -18.3224 -18.2528 -17.7712 -17.6181 -17.5792 -17.5780
   -17.5470 -17.2507 -17.2188 -16.9429 -16.8926 -15.5266 -15.5118 -15.4363
   -15.2281 -15.1133 -14.6362 -14.5536 -14.4275 -14.2176 -14.1235 -13.8599
   -13.7197 -13.6592 -13.5738 -13.1530 -12.7873 -12.3961 -11.8826 -11.8237
   -11.7409 -11.6878 -11.6052 -11.4980 -11.3847 -11.0528 -10.9784 -10.8535
   -10.7320 -10.5148 -10.4133  -9.9079  -9.4594  -9.4382  -9.2617  -9.1770
    -9.1130  -9.0721  -8.9920  -8.9781  -8.9489  -8.9166  -8.8588  -8.8370
    -8.6691  -8.6495  -8.6196  -8.4886  -8.4384  -8.3397  -8.1587  -8.0421
    -7.8372  -7.8341  -7.7668  -7.7475  -7.6340  -7.4573  -7.2577  -7.2423
    -6.5481  -6.5251  -6.3831  -6.2495  -6.2099  -6.0712  -6.0490  -5.8983
    -5.7736  -5.5949  -5.5701  -5.3888  -5.3613  -5.2691  -5.1756  -4.8427
    -4.8197  -4.5823  -4.5103  -4.4420  -4.3826  -4.2833  -4.2378  -4.1923
    -4.1607  -3.1414  -2.7420  -2.6429  -2.4850  -2.2476  -1.8257  -1.6528
    -0.7101  -0.5344  -0.3035  -0.1104  -0.0194   0.0961   0.4118   0.4471
     0.5015   1.1333   1.5645   1.6605   1.7594   2.1011   2.1585   2.2344
     2.3084   2.3435

     occupation numbers 
     1.0000   1.0000   1.0000   1.0000   1.0000   1.0000   1.0000   1.0000
     1.0000   1.0000   1.0000   1.0000   1.0000   1.0000   1.0000   1.0000
     1.0000   1.0000   1.0000   1.0000   1.0000   1.0000   1.0000   1.0000
     1.0000   1.0000   1.0000   1.0000   1.0000   1.0000   1.0000   1.0000
     1.0000   1.0000   1.0000   1.0000   1.0000   1.0000   1.0000   1.0000
     1.0000   1.0000   1.0000   1.0000   1.0000   1.0000   1.0000   1.0000
     1.0000   1.0000   1.0000   1.0000   1.0000   1.0000   1.0000   1.0000
     1.0000   1.0000   1.0000   1.0000   1.0000   1.0000   1.0000   1.0000
     1.0000   1.0000   1.0000   1.0000   1.0000   1.0000   1.0000   1.0000
     1.0000   1.0000   1.0000   1.0000   1.0000   1.0000   1.0000   1.0000
     1.0000   1.0000   1.0000   1.0000   1.0000   1.0000   1.0000   1.0000
     1.0000   1.0000   1.0000   1.0000   1.0000   1.0000   1.0000   1.0000
     1.0000   1.0000   1.0000   1.0000   1.0000   1.0000   1.0000   1.0000
     1.0000   1.0000   1.0000   1.0000   1.0000   1.0000   1.0000   1.0000
     0.0000   0.0000   0.0000   0.0000   0.0000   0.0000   0.0000   0.0000
     0.0000   0.0000   0.0000   0.0000   0.0000   0.0000   0.0000   0.0000
     0.0000   0.0000

          k = 0.0000 0.0000 0.1196 ( 66767 PWs)   bands (ev):

   -21.5202 -20.8111 -20.5827 -20.5811 -20.4003 -19.8889 -19.8797 -19.4876
   -19.4723 -18.4678 -18.3223 -18.2516 -17.7394 -17.6274 -17.6073 -17.5906
   -17.5770 -17.2367 -17.2037 -16.9112 -16.8598 -15.5339 -15.5265 -15.4590
   -15.2264 -15.1128 -14.6482 -14.5304 -14.4235 -14.2302 -14.1324 -13.8496
   -13.7447 -13.6983 -13.5344 -13.1306 -12.7442 -12.4235 -11.9177 -11.7992
   -11.7784 -11.6867 -11.6104 -11.4963 -11.3622 -11.0154 -10.9480 -10.8570
   -10.7325 -10.5094 -10.4021  -9.9062  -9.4970  -9.4651  -9.2933  -9.1891
    -9.1387  -9.0858  -9.0050  -8.9898  -8.9664  -8.9253  -8.8526  -8.8306
    -8.6463  -8.6268  -8.5962  -8.4627  -8.4159  -8.3276  -8.1385  -8.0519
    -7.8543  -7.8337  -7.7552  -7.7551  -7.6452  -7.4466  -7.2749  -7.2325
    -6.5495  -6.4892  -6.3798  -6.2490  -6.2124  -6.0949  -6.0796  -5.9031
    -5.7698  -5.5752  -5.5726  -5.3929  -5.3265  -5.2672  -5.1738  -4.8718
    -4.8455  -4.5934  -4.5231  -4.4454  -4.3901  -4.2577  -4.2246  -4.1602
    -4.1442  -3.1463  -2.7543  -2.6543  -2.4868  -2.2436  -1.8405  -1.6536
    -0.7385  -0.5308  -0.2842  -0.0807  -0.0116   0.1021   0.4191   0.4458
     0.5016   1.1110   1.5820   1.6356   1.7419   2.1099   2.1799   2.2141
     2.3109   2.3182

     occupation numbers 
     1.0000   1.0000   1.0000   1.0000   1.0000   1.0000   1.0000   1.0000
     1.0000   1.0000   1.0000   1.0000   1.0000   1.0000   1.0000   1.0000
     1.0000   1.0000   1.0000   1.0000   1.0000   1.0000   1.0000   1.0000
     1.0000   1.0000   1.0000   1.0000   1.0000   1.0000   1.0000   1.0000
     1.0000   1.0000   1.0000   1.0000   1.0000   1.0000   1.0000   1.0000
     1.0000   1.0000   1.0000   1.0000   1.0000   1.0000   1.0000   1.0000
     1.0000   1.0000   1.0000   1.0000   1.0000   1.0000   1.0000   1.0000
     1.0000   1.0000   1.0000   1.0000   1.0000   1.0000   1.0000   1.0000
     1.0000   1.0000   1.0000   1.0000   1.0000   1.0000   1.0000   1.0000
     1.0000   1.0000   1.0000   1.0000   1.0000   1.0000   1.0000   1.0000
     1.0000   1.0000   1.0000   1.0000   1.0000   1.0000   1.0000   1.0000
     1.0000   1.0000   1.0000   1.0000   1.0000   1.0000   1.0000   1.0000
     1.0000   1.0000   1.0000   1.0000   1.0000   1.0000   1.0000   1.0000
     1.0000   1.0000   1.0000   1.0000   1.0000   1.0000   1.0000   1.0000
     0.0000   0.0000   0.0000   0.0000   0.0000   0.0000   0.0000   0.0000
     0.0000   0.0000   0.0000   0.0000   0.0000   0.0000   0.0000   0.0000
     0.0000   0.0000

          k = 0.0000 0.0000 0.1305 ( 66775 PWs)   bands (ev):

   -21.5187 -20.8239 -20.5812 -20.5795 -20.3834 -19.9009 -19.8924 -19.4709
   -19.4562 -18.4974 -18.3217 -18.2502 -17.7094 -17.6367 -17.6351 -17.6069
   -17.6018 -17.2220 -17.1880 -16.8794 -16.8269 -15.5565 -15.5264 -15.4821
   -15.2246 -15.1152 -14.6601 -14.5060 -14.4209 -14.2397 -14.1417 -13.8397
   -13.7701 -13.7346 -13.4947 -13.1095 -12.7015 -12.4503 -11.9538 -11.8163
   -11.7783 -11.6804 -11.6152 -11.4944 -11.3393 -10.9799 -10.9235 -10.8536
   -10.7334 -10.5032 -10.3906  -9.9043  -9.5344  -9.4931  -9.3260  -9.2014
    -9.1666  -9.1068  -9.0120  -9.0023  -8.9849  -8.9316  -8.8462  -8.8243
    -8.6284  -8.5974  -8.5728  -8.4374  -8.3934  -8.3187  -8.1189  -8.0582
    -7.8731  -7.8333  -7.7620  -7.7432  -7.6557  -7.4367  -7.3070  -7.2065
    -6.5508  -6.4539  -6.3766  -6.2479  -6.2151  -6.1191  -6.1093  -5.9079
    -5.7659  -5.5804  -5.5506  -5.3970  -5.2927  -5.2642  -5.1719  -4.9003
    -4.8708  -4.6047  -4.5359  -4.4487  -4.3982  -4.2323  -4.2109  -4.1280
    -4.1276  -3.1519  -2.7679  -2.6668  -2.4888  -2.2394  -1.8563  -1.6550
    -0.7667  -0.5259  -0.2642  -0.0520  -0.0024   0.1084   0.4266   0.4443
     0.5019   1.0887   1.5979   1.6105   1.7250   2.1128   2.1986   2.1991
     2.2951   2.3136

     occupation numbers 
     1.0000   1.0000   1.0000   1.0000   1.0000   1.0000   1.0000   1.0000
     1.0000   1.0000   1.0000   1.0000   1.0000   1.0000   1.0000   1.0000
     1.0000   1.0000   1.0000   1.0000   1.0000   1.0000   1.0000   1.0000
     1.0000   1.0000   1.0000   1.0000   1.0000   1.0000   1.0000   1.0000
     1.0000   1.0000   1.0000   1.0000   1.0000   1.0000   1.0000   1.0000
     1.0000   1.0000   1.0000   1.0000   1.0000   1.0000   1.0000   1.0000
     1.0000   1.0000   1.0000   1.0000   1.0000   1.0000   1.0000   1.0000
     1.0000   1.0000   1.0000   1.0000   1.0000   1.0000   1.0000   1.0000
     1.0000   1.0000   1.0000   1.0000   1.0000   1.0000   1.0000   1.0000
     1.0000   1.0000   1.0000   1.0000   1.0000   1.0000   1.0000   1.0000
     1.0000   1.0000   1.0000   1.0000   1.0000   1.0000   1.0000   1.0000
     1.0000   1.0000   1.0000   1.0000   1.0000   1.0000   1.0000   1.0000
     1.0000   1.0000   1.0000   1.0000   1.0000   1.0000   1.0000   1.0000
     1.0000   1.0000   1.0000   1.0000   1.0000   1.0000   1.0000   1.0000
     0.0000   0.0000   0.0000   0.0000   0.0000   0.0000   0.0000   0.0000
     0.0000   0.0000   0.0000   0.0000   0.0000   0.0000   0.0000   0.0000
     0.0000   0.0000

          k = 0.0000 0.0000 0.1414 ( 66783 PWs)   bands (ev):

   -21.5170 -20.8368 -20.5795 -20.5779 -20.3660 -19.9130 -19.9052 -19.4538
   -19.4397 -18.5273 -18.3208 -18.2487 -17.6860 -17.6659 -17.6377 -17.6367
   -17.6113 -17.2069 -17.1719 -16.8476 -16.7939 -15.5796 -15.5264 -15.5056
   -15.2227 -15.1207 -14.6719 -14.4808 -14.4199 -14.2459 -14.1511 -13.8315
   -13.7992 -13.7630 -13.4548 -13.0897 -12.6593 -12.4761 -11.9904 -11.8544
   -11.7619 -11.6675 -11.6198 -11.4921 -11.3161 -10.9504 -10.9060 -10.8387
   -10.7342 -10.4960 -10.3786  -9.9022  -9.5718  -9.5221  -9.3596  -9.2138
    -9.1955  -9.1338  -9.0152  -9.0138  -9.0037  -8.9365  -8.8398  -8.8177
    -8.6123  -8.5659  -8.5498  -8.4123  -8.3706  -8.3116  -8.1072  -8.0540
    -7.8935  -7.8327  -7.7682  -7.7316  -7.6658  -7.4275  -7.3383  -7.1800
    -6.5521  -6.4188  -6.3736  -6.2464  -6.2183  -6.1455  -6.1361  -5.9126
    -5.7622  -5.5860  -5.5287  -5.4016  -5.2700  -5.2498  -5.1696  -4.9292
    -4.8966  -4.6161  -4.5487  -4.4529  -4.4070  -4.2070  -4.1965  -4.1106
    -4.0955  -3.1574  -2.7826  -2.6797  -2.4907  -2.2347  -1.8729  -1.6567
    -0.7949  -0.5203  -0.2431  -0.0259   0.0098   0.1154   0.4353   0.4433
     0.5023   1.0660   1.5854   1.6116   1.7103   2.1064   2.1933   2.2101
     2.2793   2.3166

     occupation numbers 
     1.0000   1.0000   1.0000   1.0000   1.0000   1.0000   1.0000   1.0000
     1.0000   1.0000   1.0000   1.0000   1.0000   1.0000   1.0000   1.0000
     1.0000   1.0000   1.0000   1.0000   1.0000   1.0000   1.0000   1.0000
     1.0000   1.0000   1.0000   1.0000   1.0000   1.0000   1.0000   1.0000
     1.0000   1.0000   1.0000   1.0000   1.0000   1.0000   1.0000   1.0000
     1.0000   1.0000   1.0000   1.0000   1.0000   1.0000   1.0000   1.0000
     1.0000   1.0000   1.0000   1.0000   1.0000   1.0000   1.0000   1.0000
     1.0000   1.0000   1.0000   1.0000   1.0000   1.0000   1.0000   1.0000
     1.0000   1.0000   1.0000   1.0000   1.0000   1.0000   1.0000   1.0000
     1.0000   1.0000   1.0000   1.0000   1.0000   1.0000   1.0000   1.0000
     1.0000   1.0000   1.0000   1.0000   1.0000   1.0000   1.0000   1.0000
     1.0000   1.0000   1.0000   1.0000   1.0000   1.0000   1.0000   1.0000
     1.0000   1.0000   1.0000   1.0000   1.0000   1.0000   1.0000   1.0000
     1.0000   1.0000   1.0000   1.0000   1.0000   1.0000   1.0000   1.0000
     0.0000   0.0000   0.0000   0.0000   0.0000   0.0000   0.0000   0.0000
     0.0000   0.0000   0.0000   0.0000   0.0000   0.0000   0.0000   0.0000
     0.0000   0.0000

          k = 0.0000 0.0000 0.1522 ( 66759 PWs)   bands (ev):

   -21.5151 -20.8496 -20.5778 -20.5760 -20.3482 -19.9251 -19.9178 -19.4363
   -19.4227 -18.5572 -18.3197 -18.2470 -17.6950 -17.6787 -17.6664 -17.6353
   -17.6097 -17.1913 -17.1553 -16.8156 -16.7605 -15.6031 -15.5292 -15.5264
   -15.2206 -15.1293 -14.6837 -14.4547 -14.4208 -14.2488 -14.1609 -13.8348
   -13.8269 -13.7783 -13.4146 -13.0712 -12.6192 -12.4994 -12.0269 -11.8922
   -11.7500 -11.6483 -11.6241 -11.4895 -11.2926 -10.9360 -10.8834 -10.8140
   -10.7345 -10.4880 -10.3665  -9.9000  -9.6084  -9.5519  -9.3930  -9.2263
    -9.2247  -9.1643  -9.0298  -9.0209  -9.0127  -8.9403  -8.8334  -8.8111
    -8.5964  -8.5332  -8.5268  -8.3877  -8.3480  -8.3059  -8.1083  -8.0350
    -7.9141  -7.8323  -7.7739  -7.7202  -7.6751  -7.4185  -7.3686  -7.1527
    -6.5534  -6.3842  -6.3710  -6.2444  -6.2217  -6.1742  -6.1594  -5.9171
    -5.7582  -5.5915  -5.5067  -5.4060  -5.2650  -5.2177  -5.1667  -4.9580
    -4.9224  -4.6275  -4.5616  -4.4571  -4.4156  -4.1820  -4.1818  -4.0933
    -4.0628  -3.1636  -2.7985  -2.6933  -2.4928  -2.2299  -1.8901  -1.6590
    -0.8226  -0.5136  -0.2213  -0.0054   0.0282   0.1229   0.4420   0.4445
     0.5026   1.0432   1.5604   1.6201   1.7002   2.0908   2.1965   2.2048
     2.2798   2.3199

     occupation numbers 
     1.0000   1.0000   1.0000   1.0000   1.0000   1.0000   1.0000   1.0000
     1.0000   1.0000   1.0000   1.0000   1.0000   1.0000   1.0000   1.0000
     1.0000   1.0000   1.0000   1.0000   1.0000   1.0000   1.0000   1.0000
     1.0000   1.0000   1.0000   1.0000   1.0000   1.0000   1.0000   1.0000
     1.0000   1.0000   1.0000   1.0000   1.0000   1.0000   1.0000   1.0000
     1.0000   1.0000   1.0000   1.0000   1.0000   1.0000   1.0000   1.0000
     1.0000   1.0000   1.0000   1.0000   1.0000   1.0000   1.0000   1.0000
     1.0000   1.0000   1.0000   1.0000   1.0000   1.0000   1.0000   1.0000
     1.0000   1.0000   1.0000   1.0000   1.0000   1.0000   1.0000   1.0000
     1.0000   1.0000   1.0000   1.0000   1.0000   1.0000   1.0000   1.0000
     1.0000   1.0000   1.0000   1.0000   1.0000   1.0000   1.0000   1.0000
     1.0000   1.0000   1.0000   1.0000   1.0000   1.0000   1.0000   1.0000
     1.0000   1.0000   1.0000   1.0000   1.0000   1.0000   1.0000   1.0000
     1.0000   1.0000   1.0000   1.0000   1.0000   1.0000   1.0000   1.0000
     0.0000   0.0000   0.0000   0.0000   0.0000   0.0000   0.0000   0.0000
     0.0000   0.0000   0.0000   0.0000   0.0000   0.0000   0.0000   0.0000
     0.0000   0.0000

          k = 0.0000 0.0000 0.1631 ( 66775 PWs)   bands (ev):

   -21.5131 -20.8624 -20.5759 -20.5741 -20.3302 -19.9373 -19.9305 -19.4187
   -19.4054 -18.5872 -18.3185 -18.2453 -17.7242 -17.6959 -17.6835 -17.6426
   -17.5859 -17.1754 -17.1386 -16.7835 -16.7269 -15.6269 -15.5533 -15.5264
   -15.2184 -15.1409 -14.6955 -14.4279 -14.4240 -14.2484 -14.1709 -13.8727
   -13.8309 -13.7803 -13.3744 -13.0543 -12.5876 -12.5140 -12.0639 -11.9306
   -11.7411 -11.6285 -11.6246 -11.4867 -11.2688 -10.9364 -10.8523 -10.7868
   -10.7331 -10.4795 -10.3544  -9.8977  -9.6455  -9.5827  -9.4277  -9.2545
    -9.2389  -9.1970  -9.0483  -9.0348  -9.0104  -8.9436  -8.8277  -8.8046
    -8.5810  -8.5045  -8.5008  -8.3645  -8.3256  -8.3006  -8.1161  -8.0081
    -7.9360  -7.8320  -7.7797  -7.7091  -7.6839  -7.4124  -7.3963  -7.1256
    -6.5546  -6.3689  -6.3519  -6.2419  -6.2256  -6.2033  -6.1800  -5.9216
    -5.7547  -5.5976  -5.4849  -5.4111  -5.2624  -5.1852  -5.1616  -4.9865
    -4.9481  -4.6389  -4.5745  -4.4617  -4.4250  -4.1675  -4.1569  -4.0760
    -4.0301  -3.1703  -2.8156  -2.7076  -2.4951  -2.2249  -1.9083  -1.6618
    -0.8502  -0.5061  -0.1987   0.0087   0.0530   0.1309   0.4404   0.4543
     0.5026   1.0201   1.5353   1.6199   1.6984   2.0696   2.1856   2.2048
     2.2940   2.3233

     occupation numbers 
     1.0000   1.0000   1.0000   1.0000   1.0000   1.0000   1.0000   1.0000
     1.0000   1.0000   1.0000   1.0000   1.0000   1.0000   1.0000   1.0000
     1.0000   1.0000   1.0000   1.0000   1.0000   1.0000   1.0000   1.0000
     1.0000   1.0000   1.0000   1.0000   1.0000   1.0000   1.0000   1.0000
     1.0000   1.0000   1.0000   1.0000   1.0000   1.0000   1.0000   1.0000
     1.0000   1.0000   1.0000   1.0000   1.0000   1.0000   1.0000   1.0000
     1.0000   1.0000   1.0000   1.0000   1.0000   1.0000   1.0000   1.0000
     1.0000   1.0000   1.0000   1.0000   1.0000   1.0000   1.0000   1.0000
     1.0000   1.0000   1.0000   1.0000   1.0000   1.0000   1.0000   1.0000
     1.0000   1.0000   1.0000   1.0000   1.0000   1.0000   1.0000   1.0000
     1.0000   1.0000   1.0000   1.0000   1.0000   1.0000   1.0000   1.0000
     1.0000   1.0000   1.0000   1.0000   1.0000   1.0000   1.0000   1.0000
     1.0000   1.0000   1.0000   1.0000   1.0000   1.0000   1.0000   1.0000
     1.0000   1.0000   1.0000   1.0000   1.0000   1.0000   1.0000   1.0000
     0.0000   0.0000   0.0000   0.0000   0.0000   0.0000   0.0000   0.0000
     0.0000   0.0000   0.0000   0.0000   0.0000   0.0000   0.0000   0.0000
     0.0000   0.0000

          k = 0.0000 0.0000 0.1740 ( 66787 PWs)   bands (ev):

   -21.5110 -20.8751 -20.5739 -20.5721 -20.3118 -19.9494 -19.9429 -19.4008
   -19.3878 -18.6171 -18.3170 -18.2433 -17.7532 -17.7254 -17.6921 -17.6532
   -17.5550 -17.1592 -17.1216 -16.7517 -16.6935 -15.6509 -15.5777 -15.5264
   -15.2161 -15.1554 -14.7071 -14.4295 -14.4006 -14.2450 -14.1810 -13.9120
   -13.8392 -13.7736 -13.3341 -13.0390 -12.5835 -12.5010 -12.1011 -11.9690
   -11.7332 -11.6328 -11.5980 -11.4837 -11.2448 -10.9423 -10.8194 -10.7623
   -10.7252 -10.4705 -10.3421  -9.8952  -9.6819  -9.6144  -9.4627  -9.2845
    -9.2515  -9.2307  -9.0686  -9.0469  -9.0074  -8.9463  -8.8226  -8.7981
    -8.5660  -8.4830  -8.4688  -8.3435  -8.3033  -8.2942  -8.1259  -7.9781
    -7.9584  -7.8317  -7.7852  -7.6988  -7.6917  -7.4297  -7.4003  -7.0980
    -6.5558  -6.3672  -6.3242  -6.2392  -6.2317  -6.2292  -6.1966  -5.9259
    -5.7511  -5.6043  -5.4632  -5.4169  -5.2600  -5.1674  -5.1412  -5.0149
    -4.9737  -4.6503  -4.5873  -4.4665  -4.4352  -4.1527  -4.1321  -4.0586
    -3.9972  -3.1773  -2.8337  -2.7223  -2.4972  -2.2196  -1.9268  -1.6650
    -0.8772  -0.4977  -0.1755   0.0202   0.0806   0.1398   0.4391   0.4648
     0.5028   0.9969   1.5102   1.6103   1.7055   2.0458   2.1610   2.2156
     2.3135   2.3270

     occupation numbers 
     1.0000   1.0000   1.0000   1.0000   1.0000   1.0000   1.0000   1.0000
     1.0000   1.0000   1.0000   1.0000   1.0000   1.0000   1.0000   1.0000
     1.0000   1.0000   1.0000   1.0000   1.0000   1.0000   1.0000   1.0000
     1.0000   1.0000   1.0000   1.0000   1.0000   1.0000   1.0000   1.0000
     1.0000   1.0000   1.0000   1.0000   1.0000   1.0000   1.0000   1.0000
[...]
   -10.7346 -10.5242 -10.4448  -9.9122  -9.3647  -9.3480  -9.1790  -9.1427
    -9.0770  -9.0205  -8.9514  -8.9489  -8.9112  -8.8714  -8.8682  -8.8504
    -8.7455  -8.6951  -8.6900  -8.5655  -8.5052  -8.3971  -8.2022  -8.0074
    -7.8362  -7.8011  -7.8010  -7.7144  -7.5966  -7.4930  -7.3311  -7.1421
    -6.6344  -6.5442  -6.3927  -6.2494  -6.2040  -6.0010  -5.9550  -5.8839
    -5.7851  -5.6618  -5.5585  -5.4649  -5.3804  -5.2732  -5.1801  -4.7551
    -4.7426  -4.5504  -4.4735  -4.4336  -4.3647  -4.3601  -4.2865  -4.2738
    -4.2080  -3.1289  -2.7119  -2.6140  -2.4801  -2.2576  -1.7865  -1.6532
    -0.6233  -0.5401  -0.3544  -0.2015  -0.0370   0.0820   0.3942   0.4508
     0.5008   1.1988   1.5096   1.7349   1.8134   2.0625   2.0897   2.3002
     2.3084   2.4231

     occupation numbers 
     1.0000   1.0000   1.0000   1.0000   1.0000   1.0000   1.0000   1.0000
     1.0000   1.0000   1.0000   1.0000   1.0000   1.0000   1.0000   1.0000
     1.0000   1.0000   1.0000   1.0000   1.0000   1.0000   1.0000   1.0000
     1.0000   1.0000   1.0000   1.0000   1.0000   1.0000   1.0000   1.0000
     1.0000   1.0000   1.0000   1.0000   1.0000   1.0000   1.0000   1.0000
     1.0000   1.0000   1.0000   1.0000   1.0000   1.0000   1.0000   1.0000
     1.0000   1.0000   1.0000   1.0000   1.0000   1.0000   1.0000   1.0000
     1.0000   1.0000   1.0000   1.0000   1.0000   1.0000   1.0000   1.0000
     1.0000   1.0000   1.0000   1.0000   1.0000   1.0000   1.0000   1.0000
     1.0000   1.0000   1.0000   1.0000   1.0000   1.0000   1.0000   1.0000
     1.0000   1.0000   1.0000   1.0000   1.0000   1.0000   1.0000   1.0000
     1.0000   1.0000   1.0000   1.0000   1.0000   1.0000   1.0000   1.0000
     1.0000   1.0000   1.0000   1.0000   1.0000   1.0000   1.0000   1.0000
     1.0000   1.0000   1.0000   1.0000   1.0000   1.0000   1.0000   1.0000
     0.0000   0.0000   0.0000   0.0000   0.0000   0.0000   0.0000   0.0000
     0.0000   0.0000   0.0000   0.0000   0.0000   0.0000   0.0000   0.0000
     0.0000   0.0000

          k = 0.0000 0.0000 1.0222 ( 66787 PWs)   bands (ev):

   -21.5263 -20.7501 -20.5884 -20.5870 -20.4765 -19.8334 -19.8187 -19.5634
   -19.5430 -18.3485 -18.2968 -18.2537 -17.9006 -17.5809 -17.5355 -17.4614
   -17.4272 -17.3008 -17.2740 -17.0677 -17.0194 -15.5269 -15.4332 -15.3504
   -15.2332 -15.1412 -14.6324 -14.5889 -14.4547 -14.1399 -14.0916 -13.8987
   -13.7277 -13.6116 -13.4972 -13.2526 -12.9583 -12.2838 -11.9355 -11.7565
   -11.6630 -11.5997 -11.5733 -11.4940 -11.4702 -11.2049 -11.1167 -10.8218
   -10.7374 -10.5251 -10.4547  -9.9133  -9.3430  -9.3120  -9.1603  -9.1323
    -9.0711  -8.9978  -8.9501  -8.9394  -8.9052  -8.8749  -8.8648  -8.8339
    -8.7614  -8.7119  -8.7072  -8.5905  -8.5274  -8.4231  -8.2108  -7.9957
    -7.8382  -7.8116  -7.7939  -7.7003  -7.5829  -7.5061  -7.3545  -7.1078
    -6.6712  -6.5432  -6.3958  -6.2492  -6.2028  -5.9781  -5.9236  -5.8798
    -5.7890  -5.6842  -5.5554  -5.4989  -5.3782  -5.2742  -5.1812  -4.7261
    -4.7173  -4.5408  -4.4622  -4.4314  -4.3860  -4.3602  -4.3170  -4.2840
    -4.2230  -3.1261  -2.7043  -2.6064  -2.4788  -2.2603  -1.7758  -1.6543
    -0.5942  -0.5404  -0.3689  -0.2321  -0.0418   0.0780   0.3894   0.4515
     0.5002   1.2198   1.4909   1.7593   1.8310   2.0480   2.0662   2.3002
     2.3314   2.4497

     occupation numbers 
     1.0000   1.0000   1.0000   1.0000   1.0000   1.0000   1.0000   1.0000
     1.0000   1.0000   1.0000   1.0000   1.0000   1.0000   1.0000   1.0000
     1.0000   1.0000   1.0000   1.0000   1.0000   1.0000   1.0000   1.0000
     1.0000   1.0000   1.0000   1.0000   1.0000   1.0000   1.0000   1.0000
     1.0000   1.0000   1.0000   1.0000   1.0000   1.0000   1.0000   1.0000
     1.0000   1.0000   1.0000   1.0000   1.0000   1.0000   1.0000   1.0000
     1.0000   1.0000   1.0000   1.0000   1.0000   1.0000   1.0000   1.0000
     1.0000   1.0000   1.0000   1.0000   1.0000   1.0000   1.0000   1.0000
     1.0000   1.0000   1.0000   1.0000   1.0000   1.0000   1.0000   1.0000
     1.0000   1.0000   1.0000   1.0000   1.0000   1.0000   1.0000   1.0000
     1.0000   1.0000   1.0000   1.0000   1.0000   1.0000   1.0000   1.0000
     1.0000   1.0000   1.0000   1.0000   1.0000   1.0000   1.0000   1.0000
     1.0000   1.0000   1.0000   1.0000   1.0000   1.0000   1.0000   1.0000
     1.0000   1.0000   1.0000   1.0000   1.0000   1.0000   1.0000   1.0000
     0.0000   0.0000   0.0000   0.0000   0.0000   0.0000   0.0000   0.0000
     0.0000   0.0000   0.0000   0.0000   0.0000   0.0000   0.0000   0.0000
     0.0000   0.0000

          k = 0.0000 0.0000 1.0331 ( 66783 PWs)   bands (ev):

   -21.5271 -20.7394 -20.5891 -20.5877 -20.4891 -19.8239 -19.8077 -19.5763
   -19.5544 -18.3427 -18.2786 -18.2488 -17.9322 -17.5728 -17.5258 -17.4332
   -17.3975 -17.3110 -17.2857 -17.0982 -17.0495 -15.5269 -15.4174 -15.3300
   -15.2340 -15.1533 -14.6475 -14.5773 -14.4634 -14.1150 -14.0849 -13.9070
   -13.7646 -13.5829 -13.4570 -13.2793 -12.9999 -12.2553 -11.9644 -11.7321
   -11.6522 -11.5703 -11.5607 -11.4903 -11.4852 -11.2426 -11.1524 -10.8129
   -10.7411 -10.5247 -10.4640  -9.9143  -9.3229  -9.2758  -9.1493  -9.1227
    -9.0595  -8.9772  -8.9549  -8.9306  -8.9046  -8.8768  -8.8683  -8.8105
    -8.7697  -8.7304  -8.7160  -8.6140  -8.5484  -8.4506  -8.2167  -7.9842
    -7.8417  -7.8197  -7.7884  -7.6848  -7.5685  -7.5196  -7.3771  -7.0730
    -6.7077  -6.5421  -6.3983  -6.2488  -6.2017  -5.9552  -5.8924  -5.8758
    -5.7927  -5.7065  -5.5531  -5.5322  -5.3766  -5.2750  -5.1822  -4.6974
    -4.6925  -4.5319  -4.4517  -4.4293  -4.4114  -4.3560  -4.3463  -4.2928
    -4.2374  -3.1235  -2.6978  -2.5999  -2.4775  -2.2625  -1.7660  -1.6555
    -0.5647  -0.5402  -0.3817  -0.2625  -0.0456   0.0748   0.3857   0.4525
     0.5002   1.2403   1.4725   1.7834   1.8483   2.0332   2.0431   2.2991
     2.3562   2.4764

     occupation numbers 
     1.0000   1.0000   1.0000   1.0000   1.0000   1.0000   1.0000   1.0000
     1.0000   1.0000   1.0000   1.0000   1.0000   1.0000   1.0000   1.0000
     1.0000   1.0000   1.0000   1.0000   1.0000   1.0000   1.0000   1.0000
     1.0000   1.0000   1.0000   1.0000   1.0000   1.0000   1.0000   1.0000
     1.0000   1.0000   1.0000   1.0000   1.0000   1.0000   1.0000   1.0000
     1.0000   1.0000   1.0000   1.0000   1.0000   1.0000   1.0000   1.0000
     1.0000   1.0000   1.0000   1.0000   1.0000   1.0000   1.0000   1.0000
     1.0000   1.0000   1.0000   1.0000   1.0000   1.0000   1.0000   1.0000
     1.0000   1.0000   1.0000   1.0000   1.0000   1.0000   1.0000   1.0000
     1.0000   1.0000   1.0000   1.0000   1.0000   1.0000   1.0000   1.0000
     1.0000   1.0000   1.0000   1.0000   1.0000   1.0000   1.0000   1.0000
     1.0000   1.0000   1.0000   1.0000   1.0000   1.0000   1.0000   1.0000
     1.0000   1.0000   1.0000   1.0000   1.0000   1.0000   1.0000   1.0000
     1.0000   1.0000   1.0000   1.0000   1.0000   1.0000   1.0000   1.0000
     0.0000   0.0000   0.0000   0.0000   0.0000   0.0000   0.0000   0.0000
     0.0000   0.0000   0.0000   0.0000   0.0000   0.0000   0.0000   0.0000
     0.0000   0.0000

          k = 0.0000 0.0000 1.0440 ( 66755 PWs)   bands (ev):

   -21.5277 -20.7297 -20.5897 -20.5883 -20.5003 -19.8155 -19.7977 -19.5878
   -19.5644 -18.3403 -18.2681 -18.2334 -17.9628 -17.5655 -17.5171 -17.4059
   -17.3682 -17.3198 -17.2960 -17.1280 -17.0782 -15.5269 -15.4037 -15.3099
   -15.2348 -15.1670 -14.6603 -14.5659 -14.4723 -14.0888 -14.0789 -13.9142
   -13.8004 -13.5541 -13.4176 -13.3062 -13.0404 -12.2267 -11.9935 -11.7125
   -11.6403 -11.5493 -11.5436 -11.5095 -11.4686 -11.2799 -11.1882 -10.8039
   -10.7454 -10.5231 -10.4727  -9.9150  -9.3045  -9.2403  -9.1460  -9.1138
    -9.0416  -8.9666  -8.9609  -8.9219  -8.9115  -8.8720  -8.8711  -8.7946
    -8.7742  -8.7392  -8.7193  -8.6350  -8.5691  -8.4799  -8.2209  -7.9731
    -7.8477  -7.8248  -7.7842  -7.6685  -7.5532  -7.5331  -7.3987  -7.0378
    -6.7442  -6.5411  -6.4004  -6.2482  -6.2006  -5.9328  -5.8718  -5.8615
    -5.7958  -5.7278  -5.5645  -5.5507  -5.3748  -5.2755  -5.1828  -4.6693
    -4.6684  -4.5238  -4.4422  -4.4365  -4.4271  -4.3743  -4.3521  -4.2994
    -4.2509  -3.1212  -2.6925  -2.5944  -2.4764  -2.2643  -1.7574  -1.6568
    -0.5394  -0.5352  -0.3925  -0.2928  -0.0486   0.0723   0.3827   0.4533
     0.5002   1.2601   1.4546   1.8071   1.8650   2.0189   2.0202   2.2981
     2.3807   2.5032

     occupation numbers 
     1.0000   1.0000   1.0000   1.0000   1.0000   1.0000   1.0000   1.0000
     1.0000   1.0000   1.0000   1.0000   1.0000   1.0000   1.0000   1.0000
     1.0000   1.0000   1.0000   1.0000   1.0000   1.0000   1.0000   1.0000
     1.0000   1.0000   1.0000   1.0000   1.0000   1.0000   1.0000   1.0000
     1.0000   1.0000   1.0000   1.0000   1.0000   1.0000   1.0000   1.0000
     1.0000   1.0000   1.0000   1.0000   1.0000   1.0000   1.0000   1.0000
     1.0000   1.0000   1.0000   1.0000   1.0000   1.0000   1.0000   1.0000
     1.0000   1.0000   1.0000   1.0000   1.0000   1.0000   1.0000   1.0000
     1.0000   1.0000   1.0000   1.0000   1.0000   1.0000   1.0000   1.0000
     1.0000   1.0000   1.0000   1.0000   1.0000   1.0000   1.0000   1.0000
     1.0000   1.0000   1.0000   1.0000   1.0000   1.0000   1.0000   1.0000
     1.0000   1.0000   1.0000   1.0000   1.0000   1.0000   1.0000   1.0000
     1.0000   1.0000   1.0000   1.0000   1.0000   1.0000   1.0000   1.0000
     1.0000   1.0000   1.0000   1.0000   1.0000   1.0000   1.0000   1.0000
     0.0000   0.0000   0.0000   0.0000   0.0000   0.0000   0.0000   0.0000
     0.0000   0.0000   0.0000   0.0000   0.0000   0.0000   0.0000   0.0000
     0.0000   0.0000

          k = 0.0000 0.0000 1.0549 ( 66755 PWs)   bands (ev):

   -21.5282 -20.7215 -20.5902 -20.5888 -20.5098 -19.8085 -19.7891 -19.5976
   -19.5726 -18.3392 -18.2650 -18.2097 -17.9924 -17.5595 -17.5097 -17.3804
   -17.3395 -17.3270 -17.3046 -17.1572 -17.1049 -15.5269 -15.3927 -15.2902
   -15.2353 -15.1821 -14.6705 -14.5549 -14.4816 -14.0739 -14.0619 -13.9202
   -13.8346 -13.5255 -13.3806 -13.3323 -13.0795 -12.1978 -12.0229 -11.6979
   -11.6270 -11.5408 -11.5285 -11.5178 -11.4442 -11.3164 -11.2237 -10.7952
   -10.7507 -10.5206 -10.4809  -9.9156  -9.2888  -9.2063  -9.1477  -9.1061
    -9.0208  -8.9850  -8.9507  -8.9205  -8.9144  -8.8717  -8.8630  -8.7945
    -8.7800  -8.7321  -8.7160  -8.6505  -8.5888  -8.5098  -8.2239  -7.9628
    -7.8555  -7.8274  -7.7812  -7.6524  -7.5471  -7.5377  -7.4195  -7.0028
    -6.7803  -6.5404  -6.4022  -6.2480  -6.2001  -5.9114  -5.8688  -5.8319
    -5.7986  -5.7487  -5.5956  -5.5489  -5.3736  -5.2761  -5.1834  -4.6460
    -4.6422  -4.5173  -4.4611  -4.4346  -4.4255  -4.4004  -4.3498  -4.3034
    -4.2638  -3.1196  -2.6883  -2.5902  -2.4757  -2.2657  -1.7506  -1.6583
    -0.5384  -0.5056  -0.4016  -0.3230  -0.0510   0.0703   0.3802   0.4538
     0.5000   1.2786   1.4375   1.8300   1.8807   1.9979   2.0050   2.2973
     2.4045   2.5295

     occupation numbers 
     1.0000   1.0000   1.0000   1.0000   1.0000   1.0000   1.0000   1.0000
     1.0000   1.0000   1.0000   1.0000   1.0000   1.0000   1.0000   1.0000
     1.0000   1.0000   1.0000   1.0000   1.0000   1.0000   1.0000   1.0000
     1.0000   1.0000   1.0000   1.0000   1.0000   1.0000   1.0000   1.0000
     1.0000   1.0000   1.0000   1.0000   1.0000   1.0000   1.0000   1.0000
     1.0000   1.0000   1.0000   1.0000   1.0000   1.0000   1.0000   1.0000
     1.0000   1.0000   1.0000   1.0000   1.0000   1.0000   1.0000   1.0000
     1.0000   1.0000   1.0000   1.0000   1.0000   1.0000   1.0000   1.0000
     1.0000   1.0000   1.0000   1.0000   1.0000   1.0000   1.0000   1.0000
     1.0000   1.0000   1.0000   1.0000   1.0000   1.0000   1.0000   1.0000
     1.0000   1.0000   1.0000   1.0000   1.0000   1.0000   1.0000   1.0000
     1.0000   1.0000   1.0000   1.0000   1.0000   1.0000   1.0000   1.0000
     1.0000   1.0000   1.0000   1.0000   1.0000   1.0000   1.0000   1.0000
     1.0000   1.0000   1.0000   1.0000   1.0000   1.0000   1.0000   1.0000
     0.0000   0.0000   0.0000   0.0000   0.0000   0.0000   0.0000   0.0000
     0.0000   0.0000   0.0000   0.0000   0.0000   0.0000   0.0000   0.0000
     0.0000   0.0000

          k = 0.0000 0.0000 1.0657 ( 66747 PWs)   bands (ev):

   -21.5285 -20.7152 -20.5905 -20.5892 -20.5170 -19.8032 -19.7824 -19.6052
   -19.5788 -18.3386 -18.2640 -18.1854 -18.0192 -17.5549 -17.5041 -17.3582
   -17.3324 -17.3121 -17.3111 -17.1851 -17.1279 -15.5269 -15.3846 -15.2709
   -15.2357 -15.1983 -14.6780 -14.5446 -14.4906 -14.0701 -14.0356 -13.9247
   -13.8659 -13.4980 -13.3657 -13.3386 -13.1153 -12.1689 -12.0521 -11.6881
   -11.6128 -11.5468 -11.5363 -11.4897 -11.4162 -11.3513 -11.2581 -10.7867
   -10.7567 -10.5172 -10.4882  -9.9160  -9.2764  -9.1753  -9.1512  -9.0994
    -9.0078  -8.9998  -8.9466  -8.9273  -8.9101  -8.8702  -8.8532  -8.8007
    -8.7877  -8.7239  -8.7075  -8.6532  -8.6064  -8.5395  -8.2259  -7.9540
    -7.8630  -7.8286  -7.7792  -7.6372  -7.5608  -7.5219  -7.4389  -6.9681
    -6.8157  -6.5399  -6.4035  -6.2478  -6.1996  -5.8917  -5.8664  -5.8047
    -5.8007  -5.7680  -5.6238  -5.5476  -5.3727  -5.2764  -5.1838  -4.6263
    -4.6171  -4.5123  -4.4841  -4.4293  -4.4235  -4.4226  -4.3486  -4.3039
    -4.2755  -3.1184  -2.6854  -2.5872  -2.4751  -2.2668  -1.7455  -1.6594
    -0.5375  -0.4761  -0.4083  -0.3529  -0.0526   0.0689   0.3785   0.4542
     0.4999   1.2947   1.4224   1.8511   1.8947   1.9773   1.9922   2.2967
     2.4271   2.5438

     occupation numbers 
     1.0000   1.0000   1.0000   1.0000   1.0000   1.0000   1.0000   1.0000
     1.0000   1.0000   1.0000   1.0000   1.0000   1.0000   1.0000   1.0000
     1.0000   1.0000   1.0000   1.0000   1.0000   1.0000   1.0000   1.0000
     1.0000   1.0000   1.0000   1.0000   1.0000   1.0000   1.0000   1.0000
     1.0000   1.0000   1.0000   1.0000   1.0000   1.0000   1.0000   1.0000
     1.0000   1.0000   1.0000   1.0000   1.0000   1.0000   1.0000   1.0000
     1.0000   1.0000   1.0000   1.0000   1.0000   1.0000   1.0000   1.0000
     1.0000   1.0000   1.0000   1.0000   1.0000   1.0000   1.0000   1.0000
     1.0000   1.0000   1.0000   1.0000   1.0000   1.0000   1.0000   1.0000
     1.0000   1.0000   1.0000   1.0000   1.0000   1.0000   1.0000   1.0000
     1.0000   1.0000   1.0000   1.0000   1.0000   1.0000   1.0000   1.0000
     1.0000   1.0000   1.0000   1.0000   1.0000   1.0000   1.0000   1.0000
     1.0000   1.0000   1.0000   1.0000   1.0000   1.0000   1.0000   1.0000
     1.0000   1.0000   1.0000   1.0000   1.0000   1.0000   1.0000   1.0000
     0.0000   0.0000   0.0000   0.0000   0.0000   0.0000   0.0000   0.0000
     0.0000   0.0000   0.0000   0.0000   0.0000   0.0000   0.0000   0.0000
     0.0000   0.0000

          k = 0.0000 0.0000 1.0766 ( 66727 PWs)   bands (ev):

   -21.5287 -20.7112 -20.5907 -20.5893 -20.5216 -19.7998 -19.7780 -19.6100
   -19.5826 -18.3383 -18.2636 -18.1653 -18.0406 -17.5520 -17.5005 -17.3421
   -17.3357 -17.3152 -17.2879 -17.2097 -17.1445 -15.5268 -15.3796 -15.2520
   -15.2358 -15.2155 -14.6826 -14.5361 -14.4984 -14.0676 -14.0134 -13.9275
   -13.8910 -13.4738 -13.3860 -13.3139 -13.1433 -12.1398 -12.0814 -11.6825
   -11.5975 -11.5643 -11.5342 -11.4593 -11.4007 -11.3729 -11.2892 -10.7786
   -10.7632 -10.5136 -10.4941  -9.9162  -9.2681  -9.1542  -9.1510  -9.0931
    -9.0295  -8.9814  -8.9483  -8.9313  -8.9086  -8.8689  -8.8448  -8.8034
    -8.7951  -8.7250  -8.6985  -8.6404  -8.6201  -8.5666  -8.2269  -7.9477
    -7.8686  -7.8291  -7.7780  -7.6242  -7.5727  -7.5071  -7.4556  -6.9353
    -6.8487  -6.5395  -6.4042  -6.2476  -6.1994  -5.8756  -5.8647  -5.8019
    -5.7862  -5.7802  -5.6460  -5.5469  -5.3722  -5.2766  -5.1839  -4.6121
    -4.5966  -4.5091  -4.5034  -4.4385  -4.4267  -4.4215  -4.3483  -4.3010
    -4.2856  -3.1177  -2.6835  -2.5852  -2.4745  -2.2671  -1.7423  -1.6602
    -0.5368  -0.4472  -0.4123  -0.3821  -0.0536   0.0680   0.3776   0.4545
     0.4998   1.3067   1.4113   1.8681   1.9053   1.9606   1.9824   2.2964
     2.4467   2.5252

     occupation numbers 
     1.0000   1.0000   1.0000   1.0000   1.0000   1.0000   1.0000   1.0000
     1.0000   1.0000   1.0000   1.0000   1.0000   1.0000   1.0000   1.0000
     1.0000   1.0000   1.0000   1.0000   1.0000   1.0000   1.0000   1.0000
     1.0000   1.0000   1.0000   1.0000   1.0000   1.0000   1.0000   1.0000
     1.0000   1.0000   1.0000   1.0000   1.0000   1.0000   1.0000   1.0000
     1.0000   1.0000   1.0000   1.0000   1.0000   1.0000   1.0000   1.0000
     1.0000   1.0000   1.0000   1.0000   1.0000   1.0000   1.0000   1.0000
     1.0000   1.0000   1.0000   1.0000   1.0000   1.0000   1.0000   1.0000
     1.0000   1.0000   1.0000   1.0000   1.0000   1.0000   1.0000   1.0000
     1.0000   1.0000   1.0000   1.0000   1.0000   1.0000   1.0000   1.0000
     1.0000   1.0000   1.0000   1.0000   1.0000   1.0000   1.0000   1.0000
     1.0000   1.0000   1.0000   1.0000   1.0000   1.0000   1.0000   1.0000
     1.0000   1.0000   1.0000   1.0000   1.0000   1.0000   1.0000   1.0000
     1.0000   1.0000   1.0000   1.0000   1.0000   1.0000   1.0000   1.0000
     0.0000   0.0000   0.0000   0.0000   0.0000   0.0000   0.0000   0.0000
     0.0000   0.0000   0.0000   0.0000   0.0000   0.0000   0.0000   0.0000
     0.0000   0.0000

     highest occupied, lowest unoccupied level (ev):    -1.6524   -1.4356

     Writing output data file cnt42.save
 
     init_run     :      0.24s CPU      0.28s WALL (       1 calls)
     electrons    :    813.84s CPU    841.86s WALL (       1 calls)

     Called by init_run:
     wfcinit      :      0.00s CPU      0.00s WALL (       1 calls)
     wfcinit:atom :      0.83s CPU      0.88s WALL (     100 calls)
     wfcinit:wfcr :     73.87s CPU     75.79s WALL (     100 calls)
     potinit      :      0.01s CPU      0.02s WALL (       1 calls)

     Called by electrons:
     c_bands      :    813.83s CPU    841.85s WALL (       1 calls)
     v_of_rho     :      0.00s CPU      0.01s WALL (       1 calls)
     v_h          :      0.00s CPU      0.00s WALL (       1 calls)
     v_xc         :      0.00s CPU      0.00s WALL (       1 calls)

     Called by c_bands:
     init_us_2    :      0.12s CPU      0.17s WALL (     100 calls)
     cegterg      :    732.74s CPU    757.50s WALL (     207 calls)

     Called by sum_band:

     Called by *egterg:
     h_psi        :    372.73s CPU    379.74s WALL (    3375 calls)
     g_psi        :      1.80s CPU      1.79s WALL (    3068 calls)
     cdiaghg      :    166.33s CPU    172.93s WALL (    3168 calls)
     cegterg:over :    101.36s CPU    102.47s WALL (    3068 calls)
     cegterg:upda :     86.06s CPU     89.36s WALL (    3068 calls)
     cegterg:last :     40.91s CPU     41.60s WALL (     407 calls)
     cdiaghg:chol :     12.50s CPU     12.31s WALL (    3168 calls)
     cdiaghg:inve :      1.90s CPU      2.88s WALL (    3168 calls)
     cdiaghg:para :     39.91s CPU     42.72s WALL (    6336 calls)

     Called by h_psi:
     h_psi:pot    :    367.96s CPU    374.86s WALL (    3375 calls)
     h_psi:calbec :     13.57s CPU     13.16s WALL (    3375 calls)
     vloc_psi     :    346.80s CPU    352.55s WALL (    3375 calls)
     add_vuspsi   :      7.59s CPU      9.14s WALL (    3375 calls)

     General routines
     calbec       :     13.57s CPU     13.15s WALL (    3375 calls)
     fft          :      0.00s CPU      0.01s WALL (       4 calls)
     fftw         :    333.55s CPU    326.04s WALL (  287638 calls)
     davcio       :      0.06s CPU      1.31s WALL (     200 calls)
 
     Parallel routines
     fft_scatt_xy :     12.26s CPU     21.25s WALL (  287642 calls)
     fft_scatt_yz :    229.72s CPU    143.17s WALL (  287642 calls)
 
     PWSCF        : 13m40.43s CPU    14m52.73s WALL

 
   This run was terminated on:  15: 6:35  24Apr2018            

=------------------------------------------------------------------------------=
   JOB DONE.
=------------------------------------------------------------------------------=
